+ 0 0 1 cbr 210 ------- 0 0.0 1.0 0 0
- 0 0 1 cbr 210 ------- 0 0.0 1.0 0 0
+ 0.00375 0 1 cbr 210 ------- 0 0.0 1.0 1 1
- 0.00375 0 1 cbr 210 ------- 0 0.0 1.0 1 1
+ 0.0075 0 1 cbr 210 ------- 0 0.0 1.0 2 2
- 0.0075 0 1 cbr 210 ------- 0 0.0 1.0 2 2
+ 0.01125 0 1 cbr 210 ------- 0 0.0 1.0 3 3
- 0.01125 0 1 cbr 210 ------- 0 0.0 1.0 3 3
r 0.01168 0 1 cbr 210 ------- 0 0.0 1.0 0 0
+ 0.015 0 1 cbr 210 ------- 0 0.0 1.0 4 4
- 0.015 0 1 cbr 210 ------- 0 0.0 1.0 4 4
r 0.01543 0 1 cbr 210 ------- 0 0.0 1.0 1 1
+ 0.01875 0 1 cbr 210 ------- 0 0.0 1.0 5 5
- 0.01875 0 1 cbr 210 ------- 0 0.0 1.0 5 5
r 0.01918 0 1 cbr 210 ------- 0 0.0 1.0 2 2
+ 0.0225 0 1 cbr 210 ------- 0 0.0 1.0 6 6
- 0.0225 0 1 cbr 210 ------- 0 0.0 1.0 6 6
r 0.02293 0 1 cbr 210 ------- 0 0.0 1.0 3 3
+ 0.02625 0 1 cbr 210 ------- 0 0.0 1.0 7 7
- 0.02625 0 1 cbr 210 ------- 0 0.0 1.0 7 7
r 0.02668 0 1 cbr 210 ------- 0 0.0 1.0 4 4
+ 0.03 0 1 cbr 210 ------- 0 0.0 1.0 8 8
- 0.03 0 1 cbr 210 ------- 0 0.0 1.0 8 8
r 0.03043 0 1 cbr 210 ------- 0 0.0 1.0 5 5
+ 0.03375 0 1 cbr 210 ------- 0 0.0 1.0 9 9
- 0.03375 0 1 cbr 210 ------- 0 0.0 1.0 9 9
r 0.03418 0 1 cbr 210 ------- 0 0.0 1.0 6 6
+ 0.0375 0 1 cbr 210 ------- 0 0.0 1.0 10 10
- 0.0375 0 1 cbr 210 ------- 0 0.0 1.0 10 10
r 0.03793 0 1 cbr 210 ------- 0 0.0 1.0 7 7
+ 0.04125 0 1 cbr 210 ------- 0 0.0 1.0 11 11
- 0.04125 0 1 cbr 210 ------- 0 0.0 1.0 11 11
r 0.04168 0 1 cbr 210 ------- 0 0.0 1.0 8 8
+ 0.045 0 1 cbr 210 ------- 0 0.0 1.0 12 12
- 0.045 0 1 cbr 210 ------- 0 0.0 1.0 12 12
r 0.04543 0 1 cbr 210 ------- 0 0.0 1.0 9 9
+ 0.04875 0 1 cbr 210 ------- 0 0.0 1.0 13 13
- 0.04875 0 1 cbr 210 ------- 0 0.0 1.0 13 13
r 0.04918 0 1 cbr 210 ------- 0 0.0 1.0 10 10
+ 0.0525 0 1 cbr 210 ------- 0 0.0 1.0 14 14
- 0.0525 0 1 cbr 210 ------- 0 0.0 1.0 14 14
r 0.05293 0 1 cbr 210 ------- 0 0.0 1.0 11 11
+ 0.05625 0 1 cbr 210 ------- 0 0.0 1.0 15 15
- 0.05625 0 1 cbr 210 ------- 0 0.0 1.0 15 15
r 0.05668 0 1 cbr 210 ------- 0 0.0 1.0 12 12
+ 0.06 0 1 cbr 210 ------- 0 0.0 1.0 16 16
- 0.06 0 1 cbr 210 ------- 0 0.0 1.0 16 16
r 0.06043 0 1 cbr 210 ------- 0 0.0 1.0 13 13
+ 0.06375 0 1 cbr 210 ------- 0 0.0 1.0 17 17
- 0.06375 0 1 cbr 210 ------- 0 0.0 1.0 17 17
r 0.06418 0 1 cbr 210 ------- 0 0.0 1.0 14 14
+ 0.0675 0 1 cbr 210 ------- 0 0.0 1.0 18 18
- 0.0675 0 1 cbr 210 ------- 0 0.0 1.0 18 18
r 0.06793 0 1 cbr 210 ------- 0 0.0 1.0 15 15
+ 0.07125 0 1 cbr 210 ------- 0 0.0 1.0 19 19
- 0.07125 0 1 cbr 210 ------- 0 0.0 1.0 19 19
r 0.07168 0 1 cbr 210 ------- 0 0.0 1.0 16 16
+ 0.075 0 1 cbr 210 ------- 0 0.0 1.0 20 20
- 0.075 0 1 cbr 210 ------- 0 0.0 1.0 20 20
r 0.07543 0 1 cbr 210 ------- 0 0.0 1.0 17 17
+ 0.07875 0 1 cbr 210 ------- 0 0.0 1.0 21 21
- 0.07875 0 1 cbr 210 ------- 0 0.0 1.0 21 21
r 0.07918 0 1 cbr 210 ------- 0 0.0 1.0 18 18
+ 0.0825 0 1 cbr 210 ------- 0 0.0 1.0 22 22
- 0.0825 0 1 cbr 210 ------- 0 0.0 1.0 22 22
r 0.08293 0 1 cbr 210 ------- 0 0.0 1.0 19 19
+ 0.08625 0 1 cbr 210 ------- 0 0.0 1.0 23 23
- 0.08625 0 1 cbr 210 ------- 0 0.0 1.0 23 23
r 0.08668 0 1 cbr 210 ------- 0 0.0 1.0 20 20
+ 0.09 0 1 cbr 210 ------- 0 0.0 1.0 24 24
- 0.09 0 1 cbr 210 ------- 0 0.0 1.0 24 24
r 0.09043 0 1 cbr 210 ------- 0 0.0 1.0 21 21
+ 0.09375 0 1 cbr 210 ------- 0 0.0 1.0 25 25
- 0.09375 0 1 cbr 210 ------- 0 0.0 1.0 25 25
r 0.09418 0 1 cbr 210 ------- 0 0.0 1.0 22 22
+ 0.0975 0 1 cbr 210 ------- 0 0.0 1.0 26 26
- 0.0975 0 1 cbr 210 ------- 0 0.0 1.0 26 26
r 0.09793 0 1 cbr 210 ------- 0 0.0 1.0 23 23
+ 0.10125 0 1 cbr 210 ------- 0 0.0 1.0 27 27
- 0.10125 0 1 cbr 210 ------- 0 0.0 1.0 27 27
r 0.10168 0 1 cbr 210 ------- 0 0.0 1.0 24 24
+ 0.105 0 1 cbr 210 ------- 0 0.0 1.0 28 28
- 0.105 0 1 cbr 210 ------- 0 0.0 1.0 28 28
r 0.10543 0 1 cbr 210 ------- 0 0.0 1.0 25 25
+ 0.10875 0 1 cbr 210 ------- 0 0.0 1.0 29 29
- 0.10875 0 1 cbr 210 ------- 0 0.0 1.0 29 29
r 0.10918 0 1 cbr 210 ------- 0 0.0 1.0 26 26
+ 0.1125 0 1 cbr 210 ------- 0 0.0 1.0 30 30
- 0.1125 0 1 cbr 210 ------- 0 0.0 1.0 30 30
r 0.11293 0 1 cbr 210 ------- 0 0.0 1.0 27 27
+ 0.11625 0 1 cbr 210 ------- 0 0.0 1.0 31 31
- 0.11625 0 1 cbr 210 ------- 0 0.0 1.0 31 31
r 0.11668 0 1 cbr 210 ------- 0 0.0 1.0 28 28
+ 0.12 0 1 cbr 210 ------- 0 0.0 1.0 32 32
- 0.12 0 1 cbr 210 ------- 0 0.0 1.0 32 32
r 0.12043 0 1 cbr 210 ------- 0 0.0 1.0 29 29
+ 0.12375 0 1 cbr 210 ------- 0 0.0 1.0 33 33
- 0.12375 0 1 cbr 210 ------- 0 0.0 1.0 33 33
r 0.12418 0 1 cbr 210 ------- 0 0.0 1.0 30 30
+ 0.1275 0 1 cbr 210 ------- 0 0.0 1.0 34 34
- 0.1275 0 1 cbr 210 ------- 0 0.0 1.0 34 34
r 0.12793 0 1 cbr 210 ------- 0 0.0 1.0 31 31
+ 0.13125 0 1 cbr 210 ------- 0 0.0 1.0 35 35
- 0.13125 0 1 cbr 210 ------- 0 0.0 1.0 35 35
r 0.13168 0 1 cbr 210 ------- 0 0.0 1.0 32 32
+ 0.135 0 1 cbr 210 ------- 0 0.0 1.0 36 36
- 0.135 0 1 cbr 210 ------- 0 0.0 1.0 36 36
r 0.13543 0 1 cbr 210 ------- 0 0.0 1.0 33 33
+ 0.13875 0 1 cbr 210 ------- 0 0.0 1.0 37 37
- 0.13875 0 1 cbr 210 ------- 0 0.0 1.0 37 37
r 0.13918 0 1 cbr 210 ------- 0 0.0 1.0 34 34
+ 0.1425 0 1 cbr 210 ------- 0 0.0 1.0 38 38
- 0.1425 0 1 cbr 210 ------- 0 0.0 1.0 38 38
r 0.14293 0 1 cbr 210 ------- 0 0.0 1.0 35 35
+ 0.14625 0 1 cbr 210 ------- 0 0.0 1.0 39 39
- 0.14625 0 1 cbr 210 ------- 0 0.0 1.0 39 39
r 0.14668 0 1 cbr 210 ------- 0 0.0 1.0 36 36
+ 0.15 0 1 cbr 210 ------- 0 0.0 1.0 40 40
- 0.15 0 1 cbr 210 ------- 0 0.0 1.0 40 40
r 0.15043 0 1 cbr 210 ------- 0 0.0 1.0 37 37
+ 0.15375 0 1 cbr 210 ------- 0 0.0 1.0 41 41
- 0.15375 0 1 cbr 210 ------- 0 0.0 1.0 41 41
r 0.15418 0 1 cbr 210 ------- 0 0.0 1.0 38 38
+ 0.1575 0 1 cbr 210 ------- 0 0.0 1.0 42 42
- 0.1575 0 1 cbr 210 ------- 0 0.0 1.0 42 42
r 0.15793 0 1 cbr 210 ------- 0 0.0 1.0 39 39
+ 0.16125 0 1 cbr 210 ------- 0 0.0 1.0 43 43
- 0.16125 0 1 cbr 210 ------- 0 0.0 1.0 43 43
r 0.16168 0 1 cbr 210 ------- 0 0.0 1.0 40 40
+ 0.165 0 1 cbr 210 ------- 0 0.0 1.0 44 44
- 0.165 0 1 cbr 210 ------- 0 0.0 1.0 44 44
r 0.16543 0 1 cbr 210 ------- 0 0.0 1.0 41 41
+ 0.16875 0 1 cbr 210 ------- 0 0.0 1.0 45 45
- 0.16875 0 1 cbr 210 ------- 0 0.0 1.0 45 45
r 0.16918 0 1 cbr 210 ------- 0 0.0 1.0 42 42
+ 0.1725 0 1 cbr 210 ------- 0 0.0 1.0 46 46
- 0.1725 0 1 cbr 210 ------- 0 0.0 1.0 46 46
r 0.17293 0 1 cbr 210 ------- 0 0.0 1.0 43 43
+ 0.17625 0 1 cbr 210 ------- 0 0.0 1.0 47 47
- 0.17625 0 1 cbr 210 ------- 0 0.0 1.0 47 47
r 0.17668 0 1 cbr 210 ------- 0 0.0 1.0 44 44
+ 0.18 0 1 cbr 210 ------- 0 0.0 1.0 48 48
- 0.18 0 1 cbr 210 ------- 0 0.0 1.0 48 48
r 0.18043 0 1 cbr 210 ------- 0 0.0 1.0 45 45
+ 0.18375 0 1 cbr 210 ------- 0 0.0 1.0 49 49
- 0.18375 0 1 cbr 210 ------- 0 0.0 1.0 49 49
r 0.18418 0 1 cbr 210 ------- 0 0.0 1.0 46 46
+ 0.1875 0 1 cbr 210 ------- 0 0.0 1.0 50 50
- 0.1875 0 1 cbr 210 ------- 0 0.0 1.0 50 50
r 0.18793 0 1 cbr 210 ------- 0 0.0 1.0 47 47
+ 0.19125 0 1 cbr 210 ------- 0 0.0 1.0 51 51
- 0.19125 0 1 cbr 210 ------- 0 0.0 1.0 51 51
r 0.19168 0 1 cbr 210 ------- 0 0.0 1.0 48 48
+ 0.195 0 1 cbr 210 ------- 0 0.0 1.0 52 52
- 0.195 0 1 cbr 210 ------- 0 0.0 1.0 52 52
r 0.19543 0 1 cbr 210 ------- 0 0.0 1.0 49 49
+ 0.19875 0 1 cbr 210 ------- 0 0.0 1.0 53 53
- 0.19875 0 1 cbr 210 ------- 0 0.0 1.0 53 53
r 0.19918 0 1 cbr 210 ------- 0 0.0 1.0 50 50
+ 0.2025 0 1 cbr 210 ------- 0 0.0 1.0 54 54
- 0.2025 0 1 cbr 210 ------- 0 0.0 1.0 54 54
r 0.20293 0 1 cbr 210 ------- 0 0.0 1.0 51 51
+ 0.20625 0 1 cbr 210 ------- 0 0.0 1.0 55 55
- 0.20625 0 1 cbr 210 ------- 0 0.0 1.0 55 55
r 0.20668 0 1 cbr 210 ------- 0 0.0 1.0 52 52
+ 0.21 0 1 cbr 210 ------- 0 0.0 1.0 56 56
- 0.21 0 1 cbr 210 ------- 0 0.0 1.0 56 56
r 0.21043 0 1 cbr 210 ------- 0 0.0 1.0 53 53
+ 0.21375 0 1 cbr 210 ------- 0 0.0 1.0 57 57
- 0.21375 0 1 cbr 210 ------- 0 0.0 1.0 57 57
r 0.21418 0 1 cbr 210 ------- 0 0.0 1.0 54 54
+ 0.2175 0 1 cbr 210 ------- 0 0.0 1.0 58 58
- 0.2175 0 1 cbr 210 ------- 0 0.0 1.0 58 58
r 0.21793 0 1 cbr 210 ------- 0 0.0 1.0 55 55
+ 0.22125 0 1 cbr 210 ------- 0 0.0 1.0 59 59
- 0.22125 0 1 cbr 210 ------- 0 0.0 1.0 59 59
r 0.22168 0 1 cbr 210 ------- 0 0.0 1.0 56 56
+ 0.225 0 1 cbr 210 ------- 0 0.0 1.0 60 60
- 0.225 0 1 cbr 210 ------- 0 0.0 1.0 60 60
r 0.22543 0 1 cbr 210 ------- 0 0.0 1.0 57 57
+ 0.22875 0 1 cbr 210 ------- 0 0.0 1.0 61 61
- 0.22875 0 1 cbr 210 ------- 0 0.0 1.0 61 61
r 0.22918 0 1 cbr 210 ------- 0 0.0 1.0 58 58
+ 0.2325 0 1 cbr 210 ------- 0 0.0 1.0 62 62
- 0.2325 0 1 cbr 210 ------- 0 0.0 1.0 62 62
r 0.23293 0 1 cbr 210 ------- 0 0.0 1.0 59 59
+ 0.23625 0 1 cbr 210 ------- 0 0.0 1.0 63 63
- 0.23625 0 1 cbr 210 ------- 0 0.0 1.0 63 63
r 0.23668 0 1 cbr 210 ------- 0 0.0 1.0 60 60
+ 0.24 0 1 cbr 210 ------- 0 0.0 1.0 64 64
- 0.24 0 1 cbr 210 ------- 0 0.0 1.0 64 64
r 0.24043 0 1 cbr 210 ------- 0 0.0 1.0 61 61
+ 0.24375 0 1 cbr 210 ------- 0 0.0 1.0 65 65
- 0.24375 0 1 cbr 210 ------- 0 0.0 1.0 65 65
r 0.24418 0 1 cbr 210 ------- 0 0.0 1.0 62 62
+ 0.2475 0 1 cbr 210 ------- 0 0.0 1.0 66 66
- 0.2475 0 1 cbr 210 ------- 0 0.0 1.0 66 66
r 0.24793 0 1 cbr 210 ------- 0 0.0 1.0 63 63
+ 0.25125 0 1 cbr 210 ------- 0 0.0 1.0 67 67
- 0.25125 0 1 cbr 210 ------- 0 0.0 1.0 67 67
r 0.25168 0 1 cbr 210 ------- 0 0.0 1.0 64 64
+ 0.255 0 1 cbr 210 ------- 0 0.0 1.0 68 68
- 0.255 0 1 cbr 210 ------- 0 0.0 1.0 68 68
r 0.25543 0 1 cbr 210 ------- 0 0.0 1.0 65 65
+ 0.25875 0 1 cbr 210 ------- 0 0.0 1.0 69 69
- 0.25875 0 1 cbr 210 ------- 0 0.0 1.0 69 69
r 0.25918 0 1 cbr 210 ------- 0 0.0 1.0 66 66
+ 0.2625 0 1 cbr 210 ------- 0 0.0 1.0 70 70
- 0.2625 0 1 cbr 210 ------- 0 0.0 1.0 70 70
r 0.26293 0 1 cbr 210 ------- 0 0.0 1.0 67 67
+ 0.26625 0 1 cbr 210 ------- 0 0.0 1.0 71 71
- 0.26625 0 1 cbr 210 ------- 0 0.0 1.0 71 71
r 0.26668 0 1 cbr 210 ------- 0 0.0 1.0 68 68
+ 0.27 0 1 cbr 210 ------- 0 0.0 1.0 72 72
- 0.27 0 1 cbr 210 ------- 0 0.0 1.0 72 72
r 0.27043 0 1 cbr 210 ------- 0 0.0 1.0 69 69
+ 0.27375 0 1 cbr 210 ------- 0 0.0 1.0 73 73
- 0.27375 0 1 cbr 210 ------- 0 0.0 1.0 73 73
r 0.27418 0 1 cbr 210 ------- 0 0.0 1.0 70 70
+ 0.2775 0 1 cbr 210 ------- 0 0.0 1.0 74 74
- 0.2775 0 1 cbr 210 ------- 0 0.0 1.0 74 74
r 0.27793 0 1 cbr 210 ------- 0 0.0 1.0 71 71
+ 0.28125 0 1 cbr 210 ------- 0 0.0 1.0 75 75
- 0.28125 0 1 cbr 210 ------- 0 0.0 1.0 75 75
r 0.28168 0 1 cbr 210 ------- 0 0.0 1.0 72 72
+ 0.285 0 1 cbr 210 ------- 0 0.0 1.0 76 76
- 0.285 0 1 cbr 210 ------- 0 0.0 1.0 76 76
r 0.28543 0 1 cbr 210 ------- 0 0.0 1.0 73 73
+ 0.28875 0 1 cbr 210 ------- 0 0.0 1.0 77 77
- 0.28875 0 1 cbr 210 ------- 0 0.0 1.0 77 77
r 0.28918 0 1 cbr 210 ------- 0 0.0 1.0 74 74
+ 0.2925 0 1 cbr 210 ------- 0 0.0 1.0 78 78
- 0.2925 0 1 cbr 210 ------- 0 0.0 1.0 78 78
r 0.29293 0 1 cbr 210 ------- 0 0.0 1.0 75 75
+ 0.29625 0 1 cbr 210 ------- 0 0.0 1.0 79 79
- 0.29625 0 1 cbr 210 ------- 0 0.0 1.0 79 79
r 0.29668 0 1 cbr 210 ------- 0 0.0 1.0 76 76
+ 0.3 0 1 cbr 210 ------- 0 0.0 1.0 80 80
- 0.3 0 1 cbr 210 ------- 0 0.0 1.0 80 80
r 0.30043 0 1 cbr 210 ------- 0 0.0 1.0 77 77
+ 0.30375 0 1 cbr 210 ------- 0 0.0 1.0 81 81
- 0.30375 0 1 cbr 210 ------- 0 0.0 1.0 81 81
r 0.30418 0 1 cbr 210 ------- 0 0.0 1.0 78 78
+ 0.3075 0 1 cbr 210 ------- 0 0.0 1.0 82 82
- 0.3075 0 1 cbr 210 ------- 0 0.0 1.0 82 82
r 0.30793 0 1 cbr 210 ------- 0 0.0 1.0 79 79
+ 0.31125 0 1 cbr 210 ------- 0 0.0 1.0 83 83
- 0.31125 0 1 cbr 210 ------- 0 0.0 1.0 83 83
r 0.31168 0 1 cbr 210 ------- 0 0.0 1.0 80 80
+ 0.315 0 1 cbr 210 ------- 0 0.0 1.0 84 84
- 0.315 0 1 cbr 210 ------- 0 0.0 1.0 84 84
r 0.31543 0 1 cbr 210 ------- 0 0.0 1.0 81 81
+ 0.31875 0 1 cbr 210 ------- 0 0.0 1.0 85 85
- 0.31875 0 1 cbr 210 ------- 0 0.0 1.0 85 85
r 0.31918 0 1 cbr 210 ------- 0 0.0 1.0 82 82
+ 0.3225 0 1 cbr 210 ------- 0 0.0 1.0 86 86
- 0.3225 0 1 cbr 210 ------- 0 0.0 1.0 86 86
r 0.32293 0 1 cbr 210 ------- 0 0.0 1.0 83 83
+ 0.32625 0 1 cbr 210 ------- 0 0.0 1.0 87 87
- 0.32625 0 1 cbr 210 ------- 0 0.0 1.0 87 87
r 0.32668 0 1 cbr 210 ------- 0 0.0 1.0 84 84
+ 0.33 0 1 cbr 210 ------- 0 0.0 1.0 88 88
- 0.33 0 1 cbr 210 ------- 0 0.0 1.0 88 88
r 0.33043 0 1 cbr 210 ------- 0 0.0 1.0 85 85
+ 0.33375 0 1 cbr 210 ------- 0 0.0 1.0 89 89
- 0.33375 0 1 cbr 210 ------- 0 0.0 1.0 89 89
r 0.33418 0 1 cbr 210 ------- 0 0.0 1.0 86 86
+ 0.3375 0 1 cbr 210 ------- 0 0.0 1.0 90 90
- 0.3375 0 1 cbr 210 ------- 0 0.0 1.0 90 90
r 0.33793 0 1 cbr 210 ------- 0 0.0 1.0 87 87
+ 0.34125 0 1 cbr 210 ------- 0 0.0 1.0 91 91
- 0.34125 0 1 cbr 210 ------- 0 0.0 1.0 91 91
r 0.34168 0 1 cbr 210 ------- 0 0.0 1.0 88 88
+ 0.345 0 1 cbr 210 ------- 0 0.0 1.0 92 92
- 0.345 0 1 cbr 210 ------- 0 0.0 1.0 92 92
r 0.34543 0 1 cbr 210 ------- 0 0.0 1.0 89 89
+ 0.34875 0 1 cbr 210 ------- 0 0.0 1.0 93 93
- 0.34875 0 1 cbr 210 ------- 0 0.0 1.0 93 93
r 0.34918 0 1 cbr 210 ------- 0 0.0 1.0 90 90
+ 0.3525 0 1 cbr 210 ------- 0 0.0 1.0 94 94
- 0.3525 0 1 cbr 210 ------- 0 0.0 1.0 94 94
r 0.35293 0 1 cbr 210 ------- 0 0.0 1.0 91 91
+ 0.35625 0 1 cbr 210 ------- 0 0.0 1.0 95 95
- 0.35625 0 1 cbr 210 ------- 0 0.0 1.0 95 95
r 0.35668 0 1 cbr 210 ------- 0 0.0 1.0 92 92
+ 0.36 0 1 cbr 210 ------- 0 0.0 1.0 96 96
- 0.36 0 1 cbr 210 ------- 0 0.0 1.0 96 96
r 0.36043 0 1 cbr 210 ------- 0 0.0 1.0 93 93
+ 0.36375 0 1 cbr 210 ------- 0 0.0 1.0 97 97
- 0.36375 0 1 cbr 210 ------- 0 0.0 1.0 97 97
r 0.36418 0 1 cbr 210 ------- 0 0.0 1.0 94 94
+ 0.3675 0 1 cbr 210 ------- 0 0.0 1.0 98 98
- 0.3675 0 1 cbr 210 ------- 0 0.0 1.0 98 98
r 0.36793 0 1 cbr 210 ------- 0 0.0 1.0 95 95
+ 0.37125 0 1 cbr 210 ------- 0 0.0 1.0 99 99
- 0.37125 0 1 cbr 210 ------- 0 0.0 1.0 99 99
r 0.37168 0 1 cbr 210 ------- 0 0.0 1.0 96 96
+ 0.375 0 1 cbr 210 ------- 0 0.0 1.0 100 100
- 0.375 0 1 cbr 210 ------- 0 0.0 1.0 100 100
r 0.37543 0 1 cbr 210 ------- 0 0.0 1.0 97 97
+ 0.37875 0 1 cbr 210 ------- 0 0.0 1.0 101 101
- 0.37875 0 1 cbr 210 ------- 0 0.0 1.0 101 101
r 0.37918 0 1 cbr 210 ------- 0 0.0 1.0 98 98
+ 0.3825 0 1 cbr 210 ------- 0 0.0 1.0 102 102
- 0.3825 0 1 cbr 210 ------- 0 0.0 1.0 102 102
r 0.38293 0 1 cbr 210 ------- 0 0.0 1.0 99 99
+ 0.38625 0 1 cbr 210 ------- 0 0.0 1.0 103 103
- 0.38625 0 1 cbr 210 ------- 0 0.0 1.0 103 103
r 0.38668 0 1 cbr 210 ------- 0 0.0 1.0 100 100
+ 0.39 0 1 cbr 210 ------- 0 0.0 1.0 104 104
- 0.39 0 1 cbr 210 ------- 0 0.0 1.0 104 104
r 0.39043 0 1 cbr 210 ------- 0 0.0 1.0 101 101
+ 0.39375 0 1 cbr 210 ------- 0 0.0 1.0 105 105
- 0.39375 0 1 cbr 210 ------- 0 0.0 1.0 105 105
r 0.39418 0 1 cbr 210 ------- 0 0.0 1.0 102 102
+ 0.3975 0 1 cbr 210 ------- 0 0.0 1.0 106 106
- 0.3975 0 1 cbr 210 ------- 0 0.0 1.0 106 106
r 0.39793 0 1 cbr 210 ------- 0 0.0 1.0 103 103
+ 0.40125 0 1 cbr 210 ------- 0 0.0 1.0 107 107
- 0.40125 0 1 cbr 210 ------- 0 0.0 1.0 107 107
r 0.40168 0 1 cbr 210 ------- 0 0.0 1.0 104 104
+ 0.405 0 1 cbr 210 ------- 0 0.0 1.0 108 108
- 0.405 0 1 cbr 210 ------- 0 0.0 1.0 108 108
r 0.40543 0 1 cbr 210 ------- 0 0.0 1.0 105 105
+ 0.40875 0 1 cbr 210 ------- 0 0.0 1.0 109 109
- 0.40875 0 1 cbr 210 ------- 0 0.0 1.0 109 109
r 0.40918 0 1 cbr 210 ------- 0 0.0 1.0 106 106
+ 0.4125 0 1 cbr 210 ------- 0 0.0 1.0 110 110
- 0.4125 0 1 cbr 210 ------- 0 0.0 1.0 110 110
r 0.41293 0 1 cbr 210 ------- 0 0.0 1.0 107 107
+ 0.41625 0 1 cbr 210 ------- 0 0.0 1.0 111 111
- 0.41625 0 1 cbr 210 ------- 0 0.0 1.0 111 111
r 0.41668 0 1 cbr 210 ------- 0 0.0 1.0 108 108
+ 0.42 0 1 cbr 210 ------- 0 0.0 1.0 112 112
- 0.42 0 1 cbr 210 ------- 0 0.0 1.0 112 112
r 0.42043 0 1 cbr 210 ------- 0 0.0 1.0 109 109
+ 0.42375 0 1 cbr 210 ------- 0 0.0 1.0 113 113
- 0.42375 0 1 cbr 210 ------- 0 0.0 1.0 113 113
r 0.42418 0 1 cbr 210 ------- 0 0.0 1.0 110 110
+ 0.4275 0 1 cbr 210 ------- 0 0.0 1.0 114 114
- 0.4275 0 1 cbr 210 ------- 0 0.0 1.0 114 114
r 0.42793 0 1 cbr 210 ------- 0 0.0 1.0 111 111
+ 0.43125 0 1 cbr 210 ------- 0 0.0 1.0 115 115
- 0.43125 0 1 cbr 210 ------- 0 0.0 1.0 115 115
r 0.43168 0 1 cbr 210 ------- 0 0.0 1.0 112 112
+ 0.435 0 1 cbr 210 ------- 0 0.0 1.0 116 116
- 0.435 0 1 cbr 210 ------- 0 0.0 1.0 116 116
r 0.43543 0 1 cbr 210 ------- 0 0.0 1.0 113 113
+ 0.43875 0 1 cbr 210 ------- 0 0.0 1.0 117 117
- 0.43875 0 1 cbr 210 ------- 0 0.0 1.0 117 117
r 0.43918 0 1 cbr 210 ------- 0 0.0 1.0 114 114
+ 0.4425 0 1 cbr 210 ------- 0 0.0 1.0 118 118
- 0.4425 0 1 cbr 210 ------- 0 0.0 1.0 118 118
r 0.44293 0 1 cbr 210 ------- 0 0.0 1.0 115 115
+ 0.44625 0 1 cbr 210 ------- 0 0.0 1.0 119 119
- 0.44625 0 1 cbr 210 ------- 0 0.0 1.0 119 119
r 0.44668 0 1 cbr 210 ------- 0 0.0 1.0 116 116
+ 0.45 0 1 cbr 210 ------- 0 0.0 1.0 120 120
- 0.45 0 1 cbr 210 ------- 0 0.0 1.0 120 120
r 0.45043 0 1 cbr 210 ------- 0 0.0 1.0 117 117
+ 0.45375 0 1 cbr 210 ------- 0 0.0 1.0 121 121
- 0.45375 0 1 cbr 210 ------- 0 0.0 1.0 121 121
r 0.45418 0 1 cbr 210 ------- 0 0.0 1.0 118 118
+ 0.4575 0 1 cbr 210 ------- 0 0.0 1.0 122 122
- 0.4575 0 1 cbr 210 ------- 0 0.0 1.0 122 122
r 0.45793 0 1 cbr 210 ------- 0 0.0 1.0 119 119
+ 0.46125 0 1 cbr 210 ------- 0 0.0 1.0 123 123
- 0.46125 0 1 cbr 210 ------- 0 0.0 1.0 123 123
r 0.46168 0 1 cbr 210 ------- 0 0.0 1.0 120 120
+ 0.465 0 1 cbr 210 ------- 0 0.0 1.0 124 124
- 0.465 0 1 cbr 210 ------- 0 0.0 1.0 124 124
r 0.46543 0 1 cbr 210 ------- 0 0.0 1.0 121 121
+ 0.46875 0 1 cbr 210 ------- 0 0.0 1.0 125 125
- 0.46875 0 1 cbr 210 ------- 0 0.0 1.0 125 125
r 0.46918 0 1 cbr 210 ------- 0 0.0 1.0 122 122
+ 0.4725 0 1 cbr 210 ------- 0 0.0 1.0 126 126
- 0.4725 0 1 cbr 210 ------- 0 0.0 1.0 126 126
r 0.47293 0 1 cbr 210 ------- 0 0.0 1.0 123 123
+ 0.47625 0 1 cbr 210 ------- 0 0.0 1.0 127 127
- 0.47625 0 1 cbr 210 ------- 0 0.0 1.0 127 127
r 0.47668 0 1 cbr 210 ------- 0 0.0 1.0 124 124
+ 0.48 0 1 cbr 210 ------- 0 0.0 1.0 128 128
- 0.48 0 1 cbr 210 ------- 0 0.0 1.0 128 128
r 0.48043 0 1 cbr 210 ------- 0 0.0 1.0 125 125
+ 0.48375 0 1 cbr 210 ------- 0 0.0 1.0 129 129
- 0.48375 0 1 cbr 210 ------- 0 0.0 1.0 129 129
r 0.48418 0 1 cbr 210 ------- 0 0.0 1.0 126 126
+ 0.4875 0 1 cbr 210 ------- 0 0.0 1.0 130 130
- 0.4875 0 1 cbr 210 ------- 0 0.0 1.0 130 130
r 0.48793 0 1 cbr 210 ------- 0 0.0 1.0 127 127
+ 0.49125 0 1 cbr 210 ------- 0 0.0 1.0 131 131
- 0.49125 0 1 cbr 210 ------- 0 0.0 1.0 131 131
r 0.49168 0 1 cbr 210 ------- 0 0.0 1.0 128 128
+ 0.495 0 1 cbr 210 ------- 0 0.0 1.0 132 132
- 0.495 0 1 cbr 210 ------- 0 0.0 1.0 132 132
r 0.49543 0 1 cbr 210 ------- 0 0.0 1.0 129 129
+ 0.49875 0 1 cbr 210 ------- 0 0.0 1.0 133 133
- 0.49875 0 1 cbr 210 ------- 0 0.0 1.0 133 133
r 0.49918 0 1 cbr 210 ------- 0 0.0 1.0 130 130
+ 0.5025 0 1 cbr 210 ------- 0 0.0 1.0 134 134
- 0.5025 0 1 cbr 210 ------- 0 0.0 1.0 134 134
r 0.50293 0 1 cbr 210 ------- 0 0.0 1.0 131 131
+ 0.50625 0 1 cbr 210 ------- 0 0.0 1.0 135 135
- 0.50625 0 1 cbr 210 ------- 0 0.0 1.0 135 135
r 0.50668 0 1 cbr 210 ------- 0 0.0 1.0 132 132
+ 0.51 0 1 cbr 210 ------- 0 0.0 1.0 136 136
- 0.51 0 1 cbr 210 ------- 0 0.0 1.0 136 136
r 0.51043 0 1 cbr 210 ------- 0 0.0 1.0 133 133
+ 0.51375 0 1 cbr 210 ------- 0 0.0 1.0 137 137
- 0.51375 0 1 cbr 210 ------- 0 0.0 1.0 137 137
r 0.51418 0 1 cbr 210 ------- 0 0.0 1.0 134 134
+ 0.5175 0 1 cbr 210 ------- 0 0.0 1.0 138 138
- 0.5175 0 1 cbr 210 ------- 0 0.0 1.0 138 138
r 0.51793 0 1 cbr 210 ------- 0 0.0 1.0 135 135
+ 0.52125 0 1 cbr 210 ------- 0 0.0 1.0 139 139
- 0.52125 0 1 cbr 210 ------- 0 0.0 1.0 139 139
r 0.52168 0 1 cbr 210 ------- 0 0.0 1.0 136 136
+ 0.525 0 1 cbr 210 ------- 0 0.0 1.0 140 140
- 0.525 0 1 cbr 210 ------- 0 0.0 1.0 140 140
r 0.52543 0 1 cbr 210 ------- 0 0.0 1.0 137 137
+ 0.52875 0 1 cbr 210 ------- 0 0.0 1.0 141 141
- 0.52875 0 1 cbr 210 ------- 0 0.0 1.0 141 141
r 0.52918 0 1 cbr 210 ------- 0 0.0 1.0 138 138
+ 0.5325 0 1 cbr 210 ------- 0 0.0 1.0 142 142
- 0.5325 0 1 cbr 210 ------- 0 0.0 1.0 142 142
r 0.53293 0 1 cbr 210 ------- 0 0.0 1.0 139 139
+ 0.53625 0 1 cbr 210 ------- 0 0.0 1.0 143 143
- 0.53625 0 1 cbr 210 ------- 0 0.0 1.0 143 143
r 0.53668 0 1 cbr 210 ------- 0 0.0 1.0 140 140
+ 0.54 0 1 cbr 210 ------- 0 0.0 1.0 144 144
- 0.54 0 1 cbr 210 ------- 0 0.0 1.0 144 144
r 0.54043 0 1 cbr 210 ------- 0 0.0 1.0 141 141
+ 0.54375 0 1 cbr 210 ------- 0 0.0 1.0 145 145
- 0.54375 0 1 cbr 210 ------- 0 0.0 1.0 145 145
r 0.54418 0 1 cbr 210 ------- 0 0.0 1.0 142 142
+ 0.5475 0 1 cbr 210 ------- 0 0.0 1.0 146 146
- 0.5475 0 1 cbr 210 ------- 0 0.0 1.0 146 146
r 0.54793 0 1 cbr 210 ------- 0 0.0 1.0 143 143
+ 0.55125 0 1 cbr 210 ------- 0 0.0 1.0 147 147
- 0.55125 0 1 cbr 210 ------- 0 0.0 1.0 147 147
r 0.55168 0 1 cbr 210 ------- 0 0.0 1.0 144 144
+ 0.555 0 1 cbr 210 ------- 0 0.0 1.0 148 148
- 0.555 0 1 cbr 210 ------- 0 0.0 1.0 148 148
r 0.55543 0 1 cbr 210 ------- 0 0.0 1.0 145 145
+ 0.55875 0 1 cbr 210 ------- 0 0.0 1.0 149 149
- 0.55875 0 1 cbr 210 ------- 0 0.0 1.0 149 149
r 0.55918 0 1 cbr 210 ------- 0 0.0 1.0 146 146
+ 0.5625 0 1 cbr 210 ------- 0 0.0 1.0 150 150
- 0.5625 0 1 cbr 210 ------- 0 0.0 1.0 150 150
r 0.56293 0 1 cbr 210 ------- 0 0.0 1.0 147 147
+ 0.56625 0 1 cbr 210 ------- 0 0.0 1.0 151 151
- 0.56625 0 1 cbr 210 ------- 0 0.0 1.0 151 151
r 0.56668 0 1 cbr 210 ------- 0 0.0 1.0 148 148
+ 0.57 0 1 cbr 210 ------- 0 0.0 1.0 152 152
- 0.57 0 1 cbr 210 ------- 0 0.0 1.0 152 152
r 0.57043 0 1 cbr 210 ------- 0 0.0 1.0 149 149
+ 0.57375 0 1 cbr 210 ------- 0 0.0 1.0 153 153
- 0.57375 0 1 cbr 210 ------- 0 0.0 1.0 153 153
r 0.57418 0 1 cbr 210 ------- 0 0.0 1.0 150 150
+ 0.5775 0 1 cbr 210 ------- 0 0.0 1.0 154 154
- 0.5775 0 1 cbr 210 ------- 0 0.0 1.0 154 154
r 0.57793 0 1 cbr 210 ------- 0 0.0 1.0 151 151
+ 0.58125 0 1 cbr 210 ------- 0 0.0 1.0 155 155
- 0.58125 0 1 cbr 210 ------- 0 0.0 1.0 155 155
r 0.58168 0 1 cbr 210 ------- 0 0.0 1.0 152 152
+ 0.585 0 1 cbr 210 ------- 0 0.0 1.0 156 156
- 0.585 0 1 cbr 210 ------- 0 0.0 1.0 156 156
r 0.58543 0 1 cbr 210 ------- 0 0.0 1.0 153 153
+ 0.58875 0 1 cbr 210 ------- 0 0.0 1.0 157 157
- 0.58875 0 1 cbr 210 ------- 0 0.0 1.0 157 157
r 0.58918 0 1 cbr 210 ------- 0 0.0 1.0 154 154
+ 0.5925 0 1 cbr 210 ------- 0 0.0 1.0 158 158
- 0.5925 0 1 cbr 210 ------- 0 0.0 1.0 158 158
r 0.59293 0 1 cbr 210 ------- 0 0.0 1.0 155 155
+ 0.59625 0 1 cbr 210 ------- 0 0.0 1.0 159 159
- 0.59625 0 1 cbr 210 ------- 0 0.0 1.0 159 159
r 0.59668 0 1 cbr 210 ------- 0 0.0 1.0 156 156
+ 0.6 0 1 cbr 210 ------- 0 0.0 1.0 160 160
- 0.6 0 1 cbr 210 ------- 0 0.0 1.0 160 160
r 0.60043 0 1 cbr 210 ------- 0 0.0 1.0 157 157
+ 0.60375 0 1 cbr 210 ------- 0 0.0 1.0 161 161
- 0.60375 0 1 cbr 210 ------- 0 0.0 1.0 161 161
r 0.60418 0 1 cbr 210 ------- 0 0.0 1.0 158 158
+ 0.6075 0 1 cbr 210 ------- 0 0.0 1.0 162 162
- 0.6075 0 1 cbr 210 ------- 0 0.0 1.0 162 162
r 0.60793 0 1 cbr 210 ------- 0 0.0 1.0 159 159
+ 0.61125 0 1 cbr 210 ------- 0 0.0 1.0 163 163
- 0.61125 0 1 cbr 210 ------- 0 0.0 1.0 163 163
r 0.61168 0 1 cbr 210 ------- 0 0.0 1.0 160 160
+ 0.615 0 1 cbr 210 ------- 0 0.0 1.0 164 164
- 0.615 0 1 cbr 210 ------- 0 0.0 1.0 164 164
r 0.61543 0 1 cbr 210 ------- 0 0.0 1.0 161 161
+ 0.61875 0 1 cbr 210 ------- 0 0.0 1.0 165 165
- 0.61875 0 1 cbr 210 ------- 0 0.0 1.0 165 165
r 0.61918 0 1 cbr 210 ------- 0 0.0 1.0 162 162
+ 0.6225 0 1 cbr 210 ------- 0 0.0 1.0 166 166
- 0.6225 0 1 cbr 210 ------- 0 0.0 1.0 166 166
r 0.62293 0 1 cbr 210 ------- 0 0.0 1.0 163 163
+ 0.62625 0 1 cbr 210 ------- 0 0.0 1.0 167 167
- 0.62625 0 1 cbr 210 ------- 0 0.0 1.0 167 167
r 0.62668 0 1 cbr 210 ------- 0 0.0 1.0 164 164
+ 0.63 0 1 cbr 210 ------- 0 0.0 1.0 168 168
- 0.63 0 1 cbr 210 ------- 0 0.0 1.0 168 168
r 0.63043 0 1 cbr 210 ------- 0 0.0 1.0 165 165
+ 0.63375 0 1 cbr 210 ------- 0 0.0 1.0 169 169
- 0.63375 0 1 cbr 210 ------- 0 0.0 1.0 169 169
r 0.63418 0 1 cbr 210 ------- 0 0.0 1.0 166 166
+ 0.6375 0 1 cbr 210 ------- 0 0.0 1.0 170 170
- 0.6375 0 1 cbr 210 ------- 0 0.0 1.0 170 170
r 0.63793 0 1 cbr 210 ------- 0 0.0 1.0 167 167
+ 0.64125 0 1 cbr 210 ------- 0 0.0 1.0 171 171
- 0.64125 0 1 cbr 210 ------- 0 0.0 1.0 171 171
r 0.64168 0 1 cbr 210 ------- 0 0.0 1.0 168 168
+ 0.645 0 1 cbr 210 ------- 0 0.0 1.0 172 172
- 0.645 0 1 cbr 210 ------- 0 0.0 1.0 172 172
r 0.64543 0 1 cbr 210 ------- 0 0.0 1.0 169 169
+ 0.64875 0 1 cbr 210 ------- 0 0.0 1.0 173 173
- 0.64875 0 1 cbr 210 ------- 0 0.0 1.0 173 173
r 0.64918 0 1 cbr 210 ------- 0 0.0 1.0 170 170
+ 0.6525 0 1 cbr 210 ------- 0 0.0 1.0 174 174
- 0.6525 0 1 cbr 210 ------- 0 0.0 1.0 174 174
r 0.65293 0 1 cbr 210 ------- 0 0.0 1.0 171 171
+ 0.65625 0 1 cbr 210 ------- 0 0.0 1.0 175 175
- 0.65625 0 1 cbr 210 ------- 0 0.0 1.0 175 175
r 0.65668 0 1 cbr 210 ------- 0 0.0 1.0 172 172
+ 0.66 0 1 cbr 210 ------- 0 0.0 1.0 176 176
- 0.66 0 1 cbr 210 ------- 0 0.0 1.0 176 176
r 0.66043 0 1 cbr 210 ------- 0 0.0 1.0 173 173
+ 0.66375 0 1 cbr 210 ------- 0 0.0 1.0 177 177
- 0.66375 0 1 cbr 210 ------- 0 0.0 1.0 177 177
r 0.66418 0 1 cbr 210 ------- 0 0.0 1.0 174 174
+ 0.6675 0 1 cbr 210 ------- 0 0.0 1.0 178 178
- 0.6675 0 1 cbr 210 ------- 0 0.0 1.0 178 178
r 0.66793 0 1 cbr 210 ------- 0 0.0 1.0 175 175
+ 0.67125 0 1 cbr 210 ------- 0 0.0 1.0 179 179
- 0.67125 0 1 cbr 210 ------- 0 0.0 1.0 179 179
r 0.67168 0 1 cbr 210 ------- 0 0.0 1.0 176 176
+ 0.675 0 1 cbr 210 ------- 0 0.0 1.0 180 180
- 0.675 0 1 cbr 210 ------- 0 0.0 1.0 180 180
r 0.67543 0 1 cbr 210 ------- 0 0.0 1.0 177 177
+ 0.67875 0 1 cbr 210 ------- 0 0.0 1.0 181 181
- 0.67875 0 1 cbr 210 ------- 0 0.0 1.0 181 181
r 0.67918 0 1 cbr 210 ------- 0 0.0 1.0 178 178
+ 0.6825 0 1 cbr 210 ------- 0 0.0 1.0 182 182
- 0.6825 0 1 cbr 210 ------- 0 0.0 1.0 182 182
r 0.68293 0 1 cbr 210 ------- 0 0.0 1.0 179 179
+ 0.68625 0 1 cbr 210 ------- 0 0.0 1.0 183 183
- 0.68625 0 1 cbr 210 ------- 0 0.0 1.0 183 183
r 0.68668 0 1 cbr 210 ------- 0 0.0 1.0 180 180
+ 0.69 0 1 cbr 210 ------- 0 0.0 1.0 184 184
- 0.69 0 1 cbr 210 ------- 0 0.0 1.0 184 184
r 0.69043 0 1 cbr 210 ------- 0 0.0 1.0 181 181
+ 0.69375 0 1 cbr 210 ------- 0 0.0 1.0 185 185
- 0.69375 0 1 cbr 210 ------- 0 0.0 1.0 185 185
r 0.69418 0 1 cbr 210 ------- 0 0.0 1.0 182 182
+ 0.6975 0 1 cbr 210 ------- 0 0.0 1.0 186 186
- 0.6975 0 1 cbr 210 ------- 0 0.0 1.0 186 186
r 0.69793 0 1 cbr 210 ------- 0 0.0 1.0 183 183
+ 0.70125 0 1 cbr 210 ------- 0 0.0 1.0 187 187
- 0.70125 0 1 cbr 210 ------- 0 0.0 1.0 187 187
r 0.70168 0 1 cbr 210 ------- 0 0.0 1.0 184 184
+ 0.705 0 1 cbr 210 ------- 0 0.0 1.0 188 188
- 0.705 0 1 cbr 210 ------- 0 0.0 1.0 188 188
r 0.70543 0 1 cbr 210 ------- 0 0.0 1.0 185 185
+ 0.70875 0 1 cbr 210 ------- 0 0.0 1.0 189 189
- 0.70875 0 1 cbr 210 ------- 0 0.0 1.0 189 189
r 0.70918 0 1 cbr 210 ------- 0 0.0 1.0 186 186
+ 0.7125 0 1 cbr 210 ------- 0 0.0 1.0 190 190
- 0.7125 0 1 cbr 210 ------- 0 0.0 1.0 190 190
r 0.71293 0 1 cbr 210 ------- 0 0.0 1.0 187 187
+ 0.71625 0 1 cbr 210 ------- 0 0.0 1.0 191 191
- 0.71625 0 1 cbr 210 ------- 0 0.0 1.0 191 191
r 0.71668 0 1 cbr 210 ------- 0 0.0 1.0 188 188
+ 0.72 0 1 cbr 210 ------- 0 0.0 1.0 192 192
- 0.72 0 1 cbr 210 ------- 0 0.0 1.0 192 192
r 0.72043 0 1 cbr 210 ------- 0 0.0 1.0 189 189
+ 0.72375 0 1 cbr 210 ------- 0 0.0 1.0 193 193
- 0.72375 0 1 cbr 210 ------- 0 0.0 1.0 193 193
r 0.72418 0 1 cbr 210 ------- 0 0.0 1.0 190 190
+ 0.7275 0 1 cbr 210 ------- 0 0.0 1.0 194 194
- 0.7275 0 1 cbr 210 ------- 0 0.0 1.0 194 194
r 0.72793 0 1 cbr 210 ------- 0 0.0 1.0 191 191
+ 0.73125 0 1 cbr 210 ------- 0 0.0 1.0 195 195
- 0.73125 0 1 cbr 210 ------- 0 0.0 1.0 195 195
r 0.73168 0 1 cbr 210 ------- 0 0.0 1.0 192 192
+ 0.735 0 1 cbr 210 ------- 0 0.0 1.0 196 196
- 0.735 0 1 cbr 210 ------- 0 0.0 1.0 196 196
r 0.73543 0 1 cbr 210 ------- 0 0.0 1.0 193 193
+ 0.73875 0 1 cbr 210 ------- 0 0.0 1.0 197 197
- 0.73875 0 1 cbr 210 ------- 0 0.0 1.0 197 197
r 0.73918 0 1 cbr 210 ------- 0 0.0 1.0 194 194
+ 0.7425 0 1 cbr 210 ------- 0 0.0 1.0 198 198
- 0.7425 0 1 cbr 210 ------- 0 0.0 1.0 198 198
r 0.74293 0 1 cbr 210 ------- 0 0.0 1.0 195 195
+ 0.74625 0 1 cbr 210 ------- 0 0.0 1.0 199 199
- 0.74625 0 1 cbr 210 ------- 0 0.0 1.0 199 199
r 0.74668 0 1 cbr 210 ------- 0 0.0 1.0 196 196
+ 0.75 0 1 cbr 210 ------- 0 0.0 1.0 200 200
- 0.75 0 1 cbr 210 ------- 0 0.0 1.0 200 200
r 0.75043 0 1 cbr 210 ------- 0 0.0 1.0 197 197
+ 0.75375 0 1 cbr 210 ------- 0 0.0 1.0 201 201
- 0.75375 0 1 cbr 210 ------- 0 0.0 1.0 201 201
r 0.75418 0 1 cbr 210 ------- 0 0.0 1.0 198 198
+ 0.7575 0 1 cbr 210 ------- 0 0.0 1.0 202 202
- 0.7575 0 1 cbr 210 ------- 0 0.0 1.0 202 202
r 0.75793 0 1 cbr 210 ------- 0 0.0 1.0 199 199
+ 0.76125 0 1 cbr 210 ------- 0 0.0 1.0 203 203
- 0.76125 0 1 cbr 210 ------- 0 0.0 1.0 203 203
r 0.76168 0 1 cbr 210 ------- 0 0.0 1.0 200 200
+ 0.765 0 1 cbr 210 ------- 0 0.0 1.0 204 204
- 0.765 0 1 cbr 210 ------- 0 0.0 1.0 204 204
r 0.76543 0 1 cbr 210 ------- 0 0.0 1.0 201 201
+ 0.76875 0 1 cbr 210 ------- 0 0.0 1.0 205 205
- 0.76875 0 1 cbr 210 ------- 0 0.0 1.0 205 205
r 0.76918 0 1 cbr 210 ------- 0 0.0 1.0 202 202
+ 0.7725 0 1 cbr 210 ------- 0 0.0 1.0 206 206
- 0.7725 0 1 cbr 210 ------- 0 0.0 1.0 206 206
r 0.77293 0 1 cbr 210 ------- 0 0.0 1.0 203 203
+ 0.77625 0 1 cbr 210 ------- 0 0.0 1.0 207 207
- 0.77625 0 1 cbr 210 ------- 0 0.0 1.0 207 207
r 0.77668 0 1 cbr 210 ------- 0 0.0 1.0 204 204
+ 0.78 0 1 cbr 210 ------- 0 0.0 1.0 208 208
- 0.78 0 1 cbr 210 ------- 0 0.0 1.0 208 208
r 0.78043 0 1 cbr 210 ------- 0 0.0 1.0 205 205
+ 0.78375 0 1 cbr 210 ------- 0 0.0 1.0 209 209
- 0.78375 0 1 cbr 210 ------- 0 0.0 1.0 209 209
r 0.78418 0 1 cbr 210 ------- 0 0.0 1.0 206 206
+ 0.7875 0 1 cbr 210 ------- 0 0.0 1.0 210 210
- 0.7875 0 1 cbr 210 ------- 0 0.0 1.0 210 210
r 0.78793 0 1 cbr 210 ------- 0 0.0 1.0 207 207
+ 0.79125 0 1 cbr 210 ------- 0 0.0 1.0 211 211
- 0.79125 0 1 cbr 210 ------- 0 0.0 1.0 211 211
r 0.79168 0 1 cbr 210 ------- 0 0.0 1.0 208 208
+ 0.795 0 1 cbr 210 ------- 0 0.0 1.0 212 212
- 0.795 0 1 cbr 210 ------- 0 0.0 1.0 212 212
r 0.79543 0 1 cbr 210 ------- 0 0.0 1.0 209 209
+ 0.79875 0 1 cbr 210 ------- 0 0.0 1.0 213 213
- 0.79875 0 1 cbr 210 ------- 0 0.0 1.0 213 213
r 0.79918 0 1 cbr 210 ------- 0 0.0 1.0 210 210
+ 0.8025 0 1 cbr 210 ------- 0 0.0 1.0 214 214
- 0.8025 0 1 cbr 210 ------- 0 0.0 1.0 214 214
r 0.80293 0 1 cbr 210 ------- 0 0.0 1.0 211 211
+ 0.80625 0 1 cbr 210 ------- 0 0.0 1.0 215 215
- 0.80625 0 1 cbr 210 ------- 0 0.0 1.0 215 215
r 0.80668 0 1 cbr 210 ------- 0 0.0 1.0 212 212
+ 0.81 0 1 cbr 210 ------- 0 0.0 1.0 216 216