+ 0 0 1 cbr 210 ------- 0 0.0 1.0 0 0
- 0 0 1 cbr 210 ------- 0 0.0 1.0 0 0
+ 0.00336 0 1 cbr 210 ------- 0 0.0 1.0 1 1
- 0.00336 0 1 cbr 210 ------- 0 0.0 1.0 1 1
+ 0.00672 0 1 cbr 210 ------- 0 0.0 1.0 2 2
- 0.00672 0 1 cbr 210 ------- 0 0.0 1.0 2 2
+ 0.01008 0 1 cbr 210 ------- 0 0.0 1.0 3 3
- 0.01008 0 1 cbr 210 ------- 0 0.0 1.0 3 3
r 0.01168 0 1 cbr 210 ------- 0 0.0 1.0 0 0
+ 0.01344 0 1 cbr 210 ------- 0 0.0 1.0 4 4
- 0.01344 0 1 cbr 210 ------- 0 0.0 1.0 4 4
r 0.01504 0 1 cbr 210 ------- 0 0.0 1.0 1 1
+ 0.0168 0 1 cbr 210 ------- 0 0.0 1.0 5 5
- 0.0168 0 1 cbr 210 ------- 0 0.0 1.0 5 5
r 0.0184 0 1 cbr 210 ------- 0 0.0 1.0 2 2
+ 0.02016 0 1 cbr 210 ------- 0 0.0 1.0 6 6
- 0.02016 0 1 cbr 210 ------- 0 0.0 1.0 6 6
r 0.02176 0 1 cbr 210 ------- 0 0.0 1.0 3 3
+ 0.02352 0 1 cbr 210 ------- 0 0.0 1.0 7 7
- 0.02352 0 1 cbr 210 ------- 0 0.0 1.0 7 7
r 0.02512 0 1 cbr 210 ------- 0 0.0 1.0 4 4
+ 0.02688 0 1 cbr 210 ------- 0 0.0 1.0 8 8
- 0.02688 0 1 cbr 210 ------- 0 0.0 1.0 8 8
r 0.02848 0 1 cbr 210 ------- 0 0.0 1.0 5 5
+ 0.03024 0 1 cbr 210 ------- 0 0.0 1.0 9 9
- 0.03024 0 1 cbr 210 ------- 0 0.0 1.0 9 9
r 0.03184 0 1 cbr 210 ------- 0 0.0 1.0 6 6
+ 0.0336 0 1 cbr 210 ------- 0 0.0 1.0 10 10
- 0.0336 0 1 cbr 210 ------- 0 0.0 1.0 10 10
r 0.0352 0 1 cbr 210 ------- 0 0.0 1.0 7 7
+ 0.03696 0 1 cbr 210 ------- 0 0.0 1.0 11 11
- 0.03696 0 1 cbr 210 ------- 0 0.0 1.0 11 11
r 0.03856 0 1 cbr 210 ------- 0 0.0 1.0 8 8
+ 0.04032 0 1 cbr 210 ------- 0 0.0 1.0 12 12
- 0.04032 0 1 cbr 210 ------- 0 0.0 1.0 12 12
r 0.04192 0 1 cbr 210 ------- 0 0.0 1.0 9 9
+ 0.04368 0 1 cbr 210 ------- 0 0.0 1.0 13 13
- 0.04368 0 1 cbr 210 ------- 0 0.0 1.0 13 13
r 0.04528 0 1 cbr 210 ------- 0 0.0 1.0 10 10
+ 0.04704 0 1 cbr 210 ------- 0 0.0 1.0 14 14
- 0.04704 0 1 cbr 210 ------- 0 0.0 1.0 14 14
r 0.04864 0 1 cbr 210 ------- 0 0.0 1.0 11 11
+ 0.0504 0 1 cbr 210 ------- 0 0.0 1.0 15 15
- 0.0504 0 1 cbr 210 ------- 0 0.0 1.0 15 15
r 0.052 0 1 cbr 210 ------- 0 0.0 1.0 12 12
+ 0.05376 0 1 cbr 210 ------- 0 0.0 1.0 16 16
- 0.05376 0 1 cbr 210 ------- 0 0.0 1.0 16 16
r 0.05536 0 1 cbr 210 ------- 0 0.0 1.0 13 13
+ 0.05712 0 1 cbr 210 ------- 0 0.0 1.0 17 17
- 0.05712 0 1 cbr 210 ------- 0 0.0 1.0 17 17
r 0.05872 0 1 cbr 210 ------- 0 0.0 1.0 14 14
+ 0.06048 0 1 cbr 210 ------- 0 0.0 1.0 18 18
- 0.06048 0 1 cbr 210 ------- 0 0.0 1.0 18 18
r 0.06208 0 1 cbr 210 ------- 0 0.0 1.0 15 15
+ 0.06384 0 1 cbr 210 ------- 0 0.0 1.0 19 19
- 0.06384 0 1 cbr 210 ------- 0 0.0 1.0 19 19
r 0.06544 0 1 cbr 210 ------- 0 0.0 1.0 16 16
+ 0.0672 0 1 cbr 210 ------- 0 0.0 1.0 20 20
- 0.0672 0 1 cbr 210 ------- 0 0.0 1.0 20 20
r 0.0688 0 1 cbr 210 ------- 0 0.0 1.0 17 17
+ 0.07056 0 1 cbr 210 ------- 0 0.0 1.0 21 21
- 0.07056 0 1 cbr 210 ------- 0 0.0 1.0 21 21
r 0.07216 0 1 cbr 210 ------- 0 0.0 1.0 18 18
+ 0.07392 0 1 cbr 210 ------- 0 0.0 1.0 22 22
- 0.07392 0 1 cbr 210 ------- 0 0.0 1.0 22 22
r 0.07552 0 1 cbr 210 ------- 0 0.0 1.0 19 19
+ 0.07728 0 1 cbr 210 ------- 0 0.0 1.0 23 23
- 0.07728 0 1 cbr 210 ------- 0 0.0 1.0 23 23
r 0.07888 0 1 cbr 210 ------- 0 0.0 1.0 20 20
+ 0.08064 0 1 cbr 210 ------- 0 0.0 1.0 24 24
- 0.08064 0 1 cbr 210 ------- 0 0.0 1.0 24 24
r 0.08224 0 1 cbr 210 ------- 0 0.0 1.0 21 21
+ 0.084 0 1 cbr 210 ------- 0 0.0 1.0 25 25
- 0.084 0 1 cbr 210 ------- 0 0.0 1.0 25 25
r 0.0856 0 1 cbr 210 ------- 0 0.0 1.0 22 22
+ 0.08736 0 1 cbr 210 ------- 0 0.0 1.0 26 26
- 0.08736 0 1 cbr 210 ------- 0 0.0 1.0 26 26
r 0.08896 0 1 cbr 210 ------- 0 0.0 1.0 23 23
+ 0.09072 0 1 cbr 210 ------- 0 0.0 1.0 27 27
- 0.09072 0 1 cbr 210 ------- 0 0.0 1.0 27 27
r 0.09232 0 1 cbr 210 ------- 0 0.0 1.0 24 24
+ 0.09408 0 1 cbr 210 ------- 0 0.0 1.0 28 28
- 0.09408 0 1 cbr 210 ------- 0 0.0 1.0 28 28
r 0.09568 0 1 cbr 210 ------- 0 0.0 1.0 25 25
+ 0.09744 0 1 cbr 210 ------- 0 0.0 1.0 29 29
- 0.09744 0 1 cbr 210 ------- 0 0.0 1.0 29 29
r 0.09904 0 1 cbr 210 ------- 0 0.0 1.0 26 26
+ 0.1008 0 1 cbr 210 ------- 0 0.0 1.0 30 30
- 0.1008 0 1 cbr 210 ------- 0 0.0 1.0 30 30
r 0.1024 0 1 cbr 210 ------- 0 0.0 1.0 27 27
+ 0.10416 0 1 cbr 210 ------- 0 0.0 1.0 31 31
- 0.10416 0 1 cbr 210 ------- 0 0.0 1.0 31 31
r 0.10576 0 1 cbr 210 ------- 0 0.0 1.0 28 28
+ 0.10752 0 1 cbr 210 ------- 0 0.0 1.0 32 32
- 0.10752 0 1 cbr 210 ------- 0 0.0 1.0 32 32
r 0.10912 0 1 cbr 210 ------- 0 0.0 1.0 29 29
+ 0.11088 0 1 cbr 210 ------- 0 0.0 1.0 33 33
- 0.11088 0 1 cbr 210 ------- 0 0.0 1.0 33 33
r 0.11248 0 1 cbr 210 ------- 0 0.0 1.0 30 30
+ 0.11424 0 1 cbr 210 ------- 0 0.0 1.0 34 34
- 0.11424 0 1 cbr 210 ------- 0 0.0 1.0 34 34
r 0.11584 0 1 cbr 210 ------- 0 0.0 1.0 31 31
+ 0.1176 0 1 cbr 210 ------- 0 0.0 1.0 35 35
- 0.1176 0 1 cbr 210 ------- 0 0.0 1.0 35 35
r 0.1192 0 1 cbr 210 ------- 0 0.0 1.0 32 32
+ 0.12096 0 1 cbr 210 ------- 0 0.0 1.0 36 36
- 0.12096 0 1 cbr 210 ------- 0 0.0 1.0 36 36
r 0.12256 0 1 cbr 210 ------- 0 0.0 1.0 33 33
+ 0.12432 0 1 cbr 210 ------- 0 0.0 1.0 37 37
- 0.12432 0 1 cbr 210 ------- 0 0.0 1.0 37 37
r 0.12592 0 1 cbr 210 ------- 0 0.0 1.0 34 34
+ 0.12768 0 1 cbr 210 ------- 0 0.0 1.0 38 38
- 0.12768 0 1 cbr 210 ------- 0 0.0 1.0 38 38
r 0.12928 0 1 cbr 210 ------- 0 0.0 1.0 35 35
+ 0.13104 0 1 cbr 210 ------- 0 0.0 1.0 39 39
- 0.13104 0 1 cbr 210 ------- 0 0.0 1.0 39 39
r 0.13264 0 1 cbr 210 ------- 0 0.0 1.0 36 36
+ 0.1344 0 1 cbr 210 ------- 0 0.0 1.0 40 40
- 0.1344 0 1 cbr 210 ------- 0 0.0 1.0 40 40
r 0.136 0 1 cbr 210 ------- 0 0.0 1.0 37 37
+ 0.13776 0 1 cbr 210 ------- 0 0.0 1.0 41 41
- 0.13776 0 1 cbr 210 ------- 0 0.0 1.0 41 41
r 0.13936 0 1 cbr 210 ------- 0 0.0 1.0 38 38
+ 0.14112 0 1 cbr 210 ------- 0 0.0 1.0 42 42
- 0.14112 0 1 cbr 210 ------- 0 0.0 1.0 42 42
r 0.14272 0 1 cbr 210 ------- 0 0.0 1.0 39 39
+ 0.14448 0 1 cbr 210 ------- 0 0.0 1.0 43 43
- 0.14448 0 1 cbr 210 ------- 0 0.0 1.0 43 43
r 0.14608 0 1 cbr 210 ------- 0 0.0 1.0 40 40
+ 0.14784 0 1 cbr 210 ------- 0 0.0 1.0 44 44
- 0.14784 0 1 cbr 210 ------- 0 0.0 1.0 44 44
r 0.14944 0 1 cbr 210 ------- 0 0.0 1.0 41 41
+ 0.1512 0 1 cbr 210 ------- 0 0.0 1.0 45 45
- 0.1512 0 1 cbr 210 ------- 0 0.0 1.0 45 45
r 0.1528 0 1 cbr 210 ------- 0 0.0 1.0 42 42
+ 0.15456 0 1 cbr 210 ------- 0 0.0 1.0 46 46
- 0.15456 0 1 cbr 210 ------- 0 0.0 1.0 46 46
r 0.15616 0 1 cbr 210 ------- 0 0.0 1.0 43 43
+ 0.15792 0 1 cbr 210 ------- 0 0.0 1.0 47 47
- 0.15792 0 1 cbr 210 ------- 0 0.0 1.0 47 47
r 0.15952 0 1 cbr 210 ------- 0 0.0 1.0 44 44
+ 0.16128 0 1 cbr 210 ------- 0 0.0 1.0 48 48
- 0.16128 0 1 cbr 210 ------- 0 0.0 1.0 48 48
r 0.16288 0 1 cbr 210 ------- 0 0.0 1.0 45 45
+ 0.16464 0 1 cbr 210 ------- 0 0.0 1.0 49 49
- 0.16464 0 1 cbr 210 ------- 0 0.0 1.0 49 49
r 0.16624 0 1 cbr 210 ------- 0 0.0 1.0 46 46
+ 0.168 0 1 cbr 210 ------- 0 0.0 1.0 50 50
- 0.168 0 1 cbr 210 ------- 0 0.0 1.0 50 50
r 0.1696 0 1 cbr 210 ------- 0 0.0 1.0 47 47
+ 0.17136 0 1 cbr 210 ------- 0 0.0 1.0 51 51
- 0.17136 0 1 cbr 210 ------- 0 0.0 1.0 51 51
r 0.17296 0 1 cbr 210 ------- 0 0.0 1.0 48 48
+ 0.17472 0 1 cbr 210 ------- 0 0.0 1.0 52 52
- 0.17472 0 1 cbr 210 ------- 0 0.0 1.0 52 52
r 0.17632 0 1 cbr 210 ------- 0 0.0 1.0 49 49
+ 0.17808 0 1 cbr 210 ------- 0 0.0 1.0 53 53
- 0.17808 0 1 cbr 210 ------- 0 0.0 1.0 53 53
r 0.17968 0 1 cbr 210 ------- 0 0.0 1.0 50 50
+ 0.18144 0 1 cbr 210 ------- 0 0.0 1.0 54 54
- 0.18144 0 1 cbr 210 ------- 0 0.0 1.0 54 54
r 0.18304 0 1 cbr 210 ------- 0 0.0 1.0 51 51
+ 0.1848 0 1 cbr 210 ------- 0 0.0 1.0 55 55
- 0.1848 0 1 cbr 210 ------- 0 0.0 1.0 55 55
r 0.1864 0 1 cbr 210 ------- 0 0.0 1.0 52 52
+ 0.18816 0 1 cbr 210 ------- 0 0.0 1.0 56 56
- 0.18816 0 1 cbr 210 ------- 0 0.0 1.0 56 56
r 0.18976 0 1 cbr 210 ------- 0 0.0 1.0 53 53
+ 0.19152 0 1 cbr 210 ------- 0 0.0 1.0 57 57
- 0.19152 0 1 cbr 210 ------- 0 0.0 1.0 57 57
r 0.19312 0 1 cbr 210 ------- 0 0.0 1.0 54 54
+ 0.19488 0 1 cbr 210 ------- 0 0.0 1.0 58 58
- 0.19488 0 1 cbr 210 ------- 0 0.0 1.0 58 58
r 0.19648 0 1 cbr 210 ------- 0 0.0 1.0 55 55
+ 0.19824 0 1 cbr 210 ------- 0 0.0 1.0 59 59
- 0.19824 0 1 cbr 210 ------- 0 0.0 1.0 59 59
r 0.19984 0 1 cbr 210 ------- 0 0.0 1.0 56 56
+ 0.2016 0 1 cbr 210 ------- 0 0.0 1.0 60 60
- 0.2016 0 1 cbr 210 ------- 0 0.0 1.0 60 60
r 0.2032 0 1 cbr 210 ------- 0 0.0 1.0 57 57
+ 0.20496 0 1 cbr 210 ------- 0 0.0 1.0 61 61
- 0.20496 0 1 cbr 210 ------- 0 0.0 1.0 61 61
r 0.20656 0 1 cbr 210 ------- 0 0.0 1.0 58 58
+ 0.20832 0 1 cbr 210 ------- 0 0.0 1.0 62 62
- 0.20832 0 1 cbr 210 ------- 0 0.0 1.0 62 62
r 0.20992 0 1 cbr 210 ------- 0 0.0 1.0 59 59
+ 0.21168 0 1 cbr 210 ------- 0 0.0 1.0 63 63
- 0.21168 0 1 cbr 210 ------- 0 0.0 1.0 63 63
r 0.21328 0 1 cbr 210 ------- 0 0.0 1.0 60 60
+ 0.21504 0 1 cbr 210 ------- 0 0.0 1.0 64 64
- 0.21504 0 1 cbr 210 ------- 0 0.0 1.0 64 64
r 0.21664 0 1 cbr 210 ------- 0 0.0 1.0 61 61
+ 0.2184 0 1 cbr 210 ------- 0 0.0 1.0 65 65
- 0.2184 0 1 cbr 210 ------- 0 0.0 1.0 65 65
r 0.22 0 1 cbr 210 ------- 0 0.0 1.0 62 62
+ 0.22176 0 1 cbr 210 ------- 0 0.0 1.0 66 66
- 0.22176 0 1 cbr 210 ------- 0 0.0 1.0 66 66
r 0.22336 0 1 cbr 210 ------- 0 0.0 1.0 63 63
+ 0.22512 0 1 cbr 210 ------- 0 0.0 1.0 67 67
- 0.22512 0 1 cbr 210 ------- 0 0.0 1.0 67 67
r 0.22672 0 1 cbr 210 ------- 0 0.0 1.0 64 64
+ 0.22848 0 1 cbr 210 ------- 0 0.0 1.0 68 68
- 0.22848 0 1 cbr 210 ------- 0 0.0 1.0 68 68
r 0.23008 0 1 cbr 210 ------- 0 0.0 1.0 65 65
+ 0.23184 0 1 cbr 210 ------- 0 0.0 1.0 69 69
- 0.23184 0 1 cbr 210 ------- 0 0.0 1.0 69 69
r 0.23344 0 1 cbr 210 ------- 0 0.0 1.0 66 66
+ 0.2352 0 1 cbr 210 ------- 0 0.0 1.0 70 70
- 0.2352 0 1 cbr 210 ------- 0 0.0 1.0 70 70
r 0.2368 0 1 cbr 210 ------- 0 0.0 1.0 67 67
+ 0.23856 0 1 cbr 210 ------- 0 0.0 1.0 71 71
- 0.23856 0 1 cbr 210 ------- 0 0.0 1.0 71 71
r 0.24016 0 1 cbr 210 ------- 0 0.0 1.0 68 68
+ 0.24192 0 1 cbr 210 ------- 0 0.0 1.0 72 72
- 0.24192 0 1 cbr 210 ------- 0 0.0 1.0 72 72
r 0.24352 0 1 cbr 210 ------- 0 0.0 1.0 69 69
+ 0.24528 0 1 cbr 210 ------- 0 0.0 1.0 73 73
- 0.24528 0 1 cbr 210 ------- 0 0.0 1.0 73 73
r 0.24688 0 1 cbr 210 ------- 0 0.0 1.0 70 70
+ 0.24864 0 1 cbr 210 ------- 0 0.0 1.0 74 74
- 0.24864 0 1 cbr 210 ------- 0 0.0 1.0 74 74
r 0.25024 0 1 cbr 210 ------- 0 0.0 1.0 71 71
+ 0.252 0 1 cbr 210 ------- 0 0.0 1.0 75 75
- 0.252 0 1 cbr 210 ------- 0 0.0 1.0 75 75
r 0.2536 0 1 cbr 210 ------- 0 0.0 1.0 72 72
+ 0.25536 0 1 cbr 210 ------- 0 0.0 1.0 76 76
- 0.25536 0 1 cbr 210 ------- 0 0.0 1.0 76 76
r 0.25696 0 1 cbr 210 ------- 0 0.0 1.0 73 73
+ 0.25872 0 1 cbr 210 ------- 0 0.0 1.0 77 77
- 0.25872 0 1 cbr 210 ------- 0 0.0 1.0 77 77
r 0.26032 0 1 cbr 210 ------- 0 0.0 1.0 74 74
+ 0.26208 0 1 cbr 210 ------- 0 0.0 1.0 78 78
- 0.26208 0 1 cbr 210 ------- 0 0.0 1.0 78 78
r 0.26368 0 1 cbr 210 ------- 0 0.0 1.0 75 75
+ 0.26544 0 1 cbr 210 ------- 0 0.0 1.0 79 79
- 0.26544 0 1 cbr 210 ------- 0 0.0 1.0 79 79
r 0.26704 0 1 cbr 210 ------- 0 0.0 1.0 76 76
+ 0.2688 0 1 cbr 210 ------- 0 0.0 1.0 80 80
- 0.2688 0 1 cbr 210 ------- 0 0.0 1.0 80 80
r 0.2704 0 1 cbr 210 ------- 0 0.0 1.0 77 77
+ 0.27216 0 1 cbr 210 ------- 0 0.0 1.0 81 81
- 0.27216 0 1 cbr 210 ------- 0 0.0 1.0 81 81
r 0.27376 0 1 cbr 210 ------- 0 0.0 1.0 78 78
+ 0.27552 0 1 cbr 210 ------- 0 0.0 1.0 82 82
- 0.27552 0 1 cbr 210 ------- 0 0.0 1.0 82 82
r 0.27712 0 1 cbr 210 ------- 0 0.0 1.0 79 79
+ 0.27888 0 1 cbr 210 ------- 0 0.0 1.0 83 83
- 0.27888 0 1 cbr 210 ------- 0 0.0 1.0 83 83
r 0.28048 0 1 cbr 210 ------- 0 0.0 1.0 80 80
+ 0.28224 0 1 cbr 210 ------- 0 0.0 1.0 84 84
- 0.28224 0 1 cbr 210 ------- 0 0.0 1.0 84 84
r 0.28384 0 1 cbr 210 ------- 0 0.0 1.0 81 81
+ 0.2856 0 1 cbr 210 ------- 0 0.0 1.0 85 85
- 0.2856 0 1 cbr 210 ------- 0 0.0 1.0 85 85
r 0.2872 0 1 cbr 210 ------- 0 0.0 1.0 82 82
+ 0.28896 0 1 cbr 210 ------- 0 0.0 1.0 86 86
- 0.28896 0 1 cbr 210 ------- 0 0.0 1.0 86 86
r 0.29056 0 1 cbr 210 ------- 0 0.0 1.0 83 83
+ 0.29232 0 1 cbr 210 ------- 0 0.0 1.0 87 87
- 0.29232 0 1 cbr 210 ------- 0 0.0 1.0 87 87
r 0.29392 0 1 cbr 210 ------- 0 0.0 1.0 84 84
+ 0.29568 0 1 cbr 210 ------- 0 0.0 1.0 88 88
- 0.29568 0 1 cbr 210 ------- 0 0.0 1.0 88 88
r 0.29728 0 1 cbr 210 ------- 0 0.0 1.0 85 85
+ 0.29904 0 1 cbr 210 ------- 0 0.0 1.0 89 89
- 0.29904 0 1 cbr 210 ------- 0 0.0 1.0 89 89
r 0.30064 0 1 cbr 210 ------- 0 0.0 1.0 86 86
+ 0.3024 0 1 cbr 210 ------- 0 0.0 1.0 90 90
- 0.3024 0 1 cbr 210 ------- 0 0.0 1.0 90 90
r 0.304 0 1 cbr 210 ------- 0 0.0 1.0 87 87
+ 0.30576 0 1 cbr 210 ------- 0 0.0 1.0 91 91
- 0.30576 0 1 cbr 210 ------- 0 0.0 1.0 91 91
r 0.30736 0 1 cbr 210 ------- 0 0.0 1.0 88 88
+ 0.30912 0 1 cbr 210 ------- 0 0.0 1.0 92 92
- 0.30912 0 1 cbr 210 ------- 0 0.0 1.0 92 92
r 0.31072 0 1 cbr 210 ------- 0 0.0 1.0 89 89
+ 0.31248 0 1 cbr 210 ------- 0 0.0 1.0 93 93
- 0.31248 0 1 cbr 210 ------- 0 0.0 1.0 93 93
r 0.31408 0 1 cbr 210 ------- 0 0.0 1.0 90 90
+ 0.31584 0 1 cbr 210 ------- 0 0.0 1.0 94 94
- 0.31584 0 1 cbr 210 ------- 0 0.0 1.0 94 94
r 0.31744 0 1 cbr 210 ------- 0 0.0 1.0 91 91
+ 0.3192 0 1 cbr 210 ------- 0 0.0 1.0 95 95
- 0.3192 0 1 cbr 210 ------- 0 0.0 1.0 95 95
r 0.3208 0 1 cbr 210 ------- 0 0.0 1.0 92 92
+ 0.32256 0 1 cbr 210 ------- 0 0.0 1.0 96 96
- 0.32256 0 1 cbr 210 ------- 0 0.0 1.0 96 96
r 0.32416 0 1 cbr 210 ------- 0 0.0 1.0 93 93
+ 0.32592 0 1 cbr 210 ------- 0 0.0 1.0 97 97
- 0.32592 0 1 cbr 210 ------- 0 0.0 1.0 97 97
r 0.32752 0 1 cbr 210 ------- 0 0.0 1.0 94 94
+ 0.32928 0 1 cbr 210 ------- 0 0.0 1.0 98 98
- 0.32928 0 1 cbr 210 ------- 0 0.0 1.0 98 98
r 0.33088 0 1 cbr 210 ------- 0 0.0 1.0 95 95
+ 0.33264 0 1 cbr 210 ------- 0 0.0 1.0 99 99
- 0.33264 0 1 cbr 210 ------- 0 0.0 1.0 99 99
r 0.33424 0 1 cbr 210 ------- 0 0.0 1.0 96 96
+ 0.336 0 1 cbr 210 ------- 0 0.0 1.0 100 100
- 0.336 0 1 cbr 210 ------- 0 0.0 1.0 100 100
r 0.3376 0 1 cbr 210 ------- 0 0.0 1.0 97 97
+ 0.33936 0 1 cbr 210 ------- 0 0.0 1.0 101 101
- 0.33936 0 1 cbr 210 ------- 0 0.0 1.0 101 101
r 0.34096 0 1 cbr 210 ------- 0 0.0 1.0 98 98
+ 0.34272 0 1 cbr 210 ------- 0 0.0 1.0 102 102
- 0.34272 0 1 cbr 210 ------- 0 0.0 1.0 102 102
r 0.34432 0 1 cbr 210 ------- 0 0.0 1.0 99 99
+ 0.34608 0 1 cbr 210 ------- 0 0.0 1.0 103 103
- 0.34608 0 1 cbr 210 ------- 0 0.0 1.0 103 103
r 0.34768 0 1 cbr 210 ------- 0 0.0 1.0 100 100
+ 0.34944 0 1 cbr 210 ------- 0 0.0 1.0 104 104
- 0.34944 0 1 cbr 210 ------- 0 0.0 1.0 104 104
r 0.35104 0 1 cbr 210 ------- 0 0.0 1.0 101 101
+ 0.3528 0 1 cbr 210 ------- 0 0.0 1.0 105 105
- 0.3528 0 1 cbr 210 ------- 0 0.0 1.0 105 105
r 0.3544 0 1 cbr 210 ------- 0 0.0 1.0 102 102
+ 0.35616 0 1 cbr 210 ------- 0 0.0 1.0 106 106
- 0.35616 0 1 cbr 210 ------- 0 0.0 1.0 106 106
r 0.35776 0 1 cbr 210 ------- 0 0.0 1.0 103 103
+ 0.35952 0 1 cbr 210 ------- 0 0.0 1.0 107 107
- 0.35952 0 1 cbr 210 ------- 0 0.0 1.0 107 107
r 0.36112 0 1 cbr 210 ------- 0 0.0 1.0 104 104
+ 0.36288 0 1 cbr 210 ------- 0 0.0 1.0 108 108
- 0.36288 0 1 cbr 210 ------- 0 0.0 1.0 108 108
r 0.36448 0 1 cbr 210 ------- 0 0.0 1.0 105 105
+ 0.36624 0 1 cbr 210 ------- 0 0.0 1.0 109 109
- 0.36624 0 1 cbr 210 ------- 0 0.0 1.0 109 109
r 0.36784 0 1 cbr 210 ------- 0 0.0 1.0 106 106
+ 0.3696 0 1 cbr 210 ------- 0 0.0 1.0 110 110
- 0.3696 0 1 cbr 210 ------- 0 0.0 1.0 110 110
r 0.3712 0 1 cbr 210 ------- 0 0.0 1.0 107 107
+ 0.37296 0 1 cbr 210 ------- 0 0.0 1.0 111 111
- 0.37296 0 1 cbr 210 ------- 0 0.0 1.0 111 111
r 0.37456 0 1 cbr 210 ------- 0 0.0 1.0 108 108
+ 0.37632 0 1 cbr 210 ------- 0 0.0 1.0 112 112
- 0.37632 0 1 cbr 210 ------- 0 0.0 1.0 112 112
r 0.37792 0 1 cbr 210 ------- 0 0.0 1.0 109 109
+ 0.37968 0 1 cbr 210 ------- 0 0.0 1.0 113 113
- 0.37968 0 1 cbr 210 ------- 0 0.0 1.0 113 113
r 0.38128 0 1 cbr 210 ------- 0 0.0 1.0 110 110
+ 0.38304 0 1 cbr 210 ------- 0 0.0 1.0 114 114
- 0.38304 0 1 cbr 210 ------- 0 0.0 1.0 114 114
r 0.38464 0 1 cbr 210 ------- 0 0.0 1.0 111 111
+ 0.3864 0 1 cbr 210 ------- 0 0.0 1.0 115 115
- 0.3864 0 1 cbr 210 ------- 0 0.0 1.0 115 115
r 0.388 0 1 cbr 210 ------- 0 0.0 1.0 112 112
+ 0.38976 0 1 cbr 210 ------- 0 0.0 1.0 116 116
- 0.38976 0 1 cbr 210 ------- 0 0.0 1.0 116 116
r 0.39136 0 1 cbr 210 ------- 0 0.0 1.0 113 113
+ 0.39312 0 1 cbr 210 ------- 0 0.0 1.0 117 117
- 0.39312 0 1 cbr 210 ------- 0 0.0 1.0 117 117
r 0.39472 0 1 cbr 210 ------- 0 0.0 1.0 114 114
+ 0.39648 0 1 cbr 210 ------- 0 0.0 1.0 118 118
- 0.39648 0 1 cbr 210 ------- 0 0.0 1.0 118 118
r 0.39808 0 1 cbr 210 ------- 0 0.0 1.0 115 115
+ 0.39984 0 1 cbr 210 ------- 0 0.0 1.0 119 119
- 0.39984 0 1 cbr 210 ------- 0 0.0 1.0 119 119
r 0.40144 0 1 cbr 210 ------- 0 0.0 1.0 116 116
+ 0.4032 0 1 cbr 210 ------- 0 0.0 1.0 120 120
- 0.4032 0 1 cbr 210 ------- 0 0.0 1.0 120 120
r 0.4048 0 1 cbr 210 ------- 0 0.0 1.0 117 117
+ 0.40656 0 1 cbr 210 ------- 0 0.0 1.0 121 121
- 0.40656 0 1 cbr 210 ------- 0 0.0 1.0 121 121
r 0.40816 0 1 cbr 210 ------- 0 0.0 1.0 118 118
+ 0.40992 0 1 cbr 210 ------- 0 0.0 1.0 122 122
- 0.40992 0 1 cbr 210 ------- 0 0.0 1.0 122 122
r 0.41152 0 1 cbr 210 ------- 0 0.0 1.0 119 119
+ 0.41328 0 1 cbr 210 ------- 0 0.0 1.0 123 123
- 0.41328 0 1 cbr 210 ------- 0 0.0 1.0 123 123
r 0.41488 0 1 cbr 210 ------- 0 0.0 1.0 120 120
+ 0.41664 0 1 cbr 210 ------- 0 0.0 1.0 124 124
- 0.41664 0 1 cbr 210 ------- 0 0.0 1.0 124 124
r 0.41824 0 1 cbr 210 ------- 0 0.0 1.0 121 121
+ 0.42 0 1 cbr 210 ------- 0 0.0 1.0 125 125
- 0.42 0 1 cbr 210 ------- 0 0.0 1.0 125 125
r 0.4216 0 1 cbr 210 ------- 0 0.0 1.0 122 122
+ 0.42336 0 1 cbr 210 ------- 0 0.0 1.0 126 126
- 0.42336 0 1 cbr 210 ------- 0 0.0 1.0 126 126
r 0.42496 0 1 cbr 210 ------- 0 0.0 1.0 123 123
+ 0.42672 0 1 cbr 210 ------- 0 0.0 1.0 127 127
- 0.42672 0 1 cbr 210 ------- 0 0.0 1.0 127 127
r 0.42832 0 1 cbr 210 ------- 0 0.0 1.0 124 124
+ 0.43008 0 1 cbr 210 ------- 0 0.0 1.0 128 128
- 0.43008 0 1 cbr 210 ------- 0 0.0 1.0 128 128
r 0.43168 0 1 cbr 210 ------- 0 0.0 1.0 125 125
+ 0.43344 0 1 cbr 210 ------- 0 0.0 1.0 129 129
- 0.43344 0 1 cbr 210 ------- 0 0.0 1.0 129 129
r 0.43504 0 1 cbr 210 ------- 0 0.0 1.0 126 126
+ 0.4368 0 1 cbr 210 ------- 0 0.0 1.0 130 130
- 0.4368 0 1 cbr 210 ------- 0 0.0 1.0 130 130
r 0.4384 0 1 cbr 210 ------- 0 0.0 1.0 127 127
+ 0.44016 0 1 cbr 210 ------- 0 0.0 1.0 131 131
- 0.44016 0 1 cbr 210 ------- 0 0.0 1.0 131 131
r 0.44176 0 1 cbr 210 ------- 0 0.0 1.0 128 128
+ 0.44352 0 1 cbr 210 ------- 0 0.0 1.0 132 132
- 0.44352 0 1 cbr 210 ------- 0 0.0 1.0 132 132
r 0.44512 0 1 cbr 210 ------- 0 0.0 1.0 129 129
+ 0.44688 0 1 cbr 210 ------- 0 0.0 1.0 133 133
- 0.44688 0 1 cbr 210 ------- 0 0.0 1.0 133 133
r 0.44848 0 1 cbr 210 ------- 0 0.0 1.0 130 130
+ 0.45024 0 1 cbr 210 ------- 0 0.0 1.0 134 134
- 0.45024 0 1 cbr 210 ------- 0 0.0 1.0 134 134
r 0.45184 0 1 cbr 210 ------- 0 0.0 1.0 131 131
+ 0.4536 0 1 cbr 210 ------- 0 0.0 1.0 135 135
- 0.4536 0 1 cbr 210 ------- 0 0.0 1.0 135 135
r 0.4552 0 1 cbr 210 ------- 0 0.0 1.0 132 132
+ 0.45696 0 1 cbr 210 ------- 0 0.0 1.0 136 136
- 0.45696 0 1 cbr 210 ------- 0 0.0 1.0 136 136
r 0.45856 0 1 cbr 210 ------- 0 0.0 1.0 133 133
+ 0.46032 0 1 cbr 210 ------- 0 0.0 1.0 137 137
- 0.46032 0 1 cbr 210 ------- 0 0.0 1.0 137 137
r 0.46192 0 1 cbr 210 ------- 0 0.0 1.0 134 134
+ 0.46368 0 1 cbr 210 ------- 0 0.0 1.0 138 138
- 0.46368 0 1 cbr 210 ------- 0 0.0 1.0 138 138
r 0.46528 0 1 cbr 210 ------- 0 0.0 1.0 135 135
+ 0.46704 0 1 cbr 210 ------- 0 0.0 1.0 139 139
- 0.46704 0 1 cbr 210 ------- 0 0.0 1.0 139 139
r 0.46864 0 1 cbr 210 ------- 0 0.0 1.0 136 136
+ 0.4704 0 1 cbr 210 ------- 0 0.0 1.0 140 140
- 0.4704 0 1 cbr 210 ------- 0 0.0 1.0 140 140
r 0.472 0 1 cbr 210 ------- 0 0.0 1.0 137 137
+ 0.47376 0 1 cbr 210 ------- 0 0.0 1.0 141 141
- 0.47376 0 1 cbr 210 ------- 0 0.0 1.0 141 141
r 0.47536 0 1 cbr 210 ------- 0 0.0 1.0 138 138
+ 0.47712 0 1 cbr 210 ------- 0 0.0 1.0 142 142
- 0.47712 0 1 cbr 210 ------- 0 0.0 1.0 142 142
r 0.47872 0 1 cbr 210 ------- 0 0.0 1.0 139 139
+ 0.48048 0 1 cbr 210 ------- 0 0.0 1.0 143 143
- 0.48048 0 1 cbr 210 ------- 0 0.0 1.0 143 143
r 0.48208 0 1 cbr 210 ------- 0 0.0 1.0 140 140
+ 0.48384 0 1 cbr 210 ------- 0 0.0 1.0 144 144
- 0.48384 0 1 cbr 210 ------- 0 0.0 1.0 144 144
r 0.48544 0 1 cbr 210 ------- 0 0.0 1.0 141 141
+ 0.4872 0 1 cbr 210 ------- 0 0.0 1.0 145 145
- 0.4872 0 1 cbr 210 ------- 0 0.0 1.0 145 145
r 0.4888 0 1 cbr 210 ------- 0 0.0 1.0 142 142
+ 0.49056 0 1 cbr 210 ------- 0 0.0 1.0 146 146
- 0.49056 0 1 cbr 210 ------- 0 0.0 1.0 146 146
r 0.49216 0 1 cbr 210 ------- 0 0.0 1.0 143 143
+ 0.49392 0 1 cbr 210 ------- 0 0.0 1.0 147 147
- 0.49392 0 1 cbr 210 ------- 0 0.0 1.0 147 147
r 0.49552 0 1 cbr 210 ------- 0 0.0 1.0 144 144
+ 0.49728 0 1 cbr 210 ------- 0 0.0 1.0 148 148
- 0.49728 0 1 cbr 210 ------- 0 0.0 1.0 148 148
r 0.49888 0 1 cbr 210 ------- 0 0.0 1.0 145 145
+ 0.50064 0 1 cbr 210 ------- 0 0.0 1.0 149 149
- 0.50064 0 1 cbr 210 ------- 0 0.0 1.0 149 149
r 0.50224 0 1 cbr 210 ------- 0 0.0 1.0 146 146
+ 0.504 0 1 cbr 210 ------- 0 0.0 1.0 150 150
- 0.504 0 1 cbr 210 ------- 0 0.0 1.0 150 150
r 0.5056 0 1 cbr 210 ------- 0 0.0 1.0 147 147
+ 0.50736 0 1 cbr 210 ------- 0 0.0 1.0 151 151
- 0.50736 0 1 cbr 210 ------- 0 0.0 1.0 151 151
r 0.50896 0 1 cbr 210 ------- 0 0.0 1.0 148 148
+ 0.51072 0 1 cbr 210 ------- 0 0.0 1.0 152 152
- 0.51072 0 1 cbr 210 ------- 0 0.0 1.0 152 152
r 0.51232 0 1 cbr 210 ------- 0 0.0 1.0 149 149
+ 0.51408 0 1 cbr 210 ------- 0 0.0 1.0 153 153
- 0.51408 0 1 cbr 210 ------- 0 0.0 1.0 153 153
r 0.51568 0 1 cbr 210 ------- 0 0.0 1.0 150 150
+ 0.51744 0 1 cbr 210 ------- 0 0.0 1.0 154 154
- 0.51744 0 1 cbr 210 ------- 0 0.0 1.0 154 154
r 0.51904 0 1 cbr 210 ------- 0 0.0 1.0 151 151
+ 0.5208 0 1 cbr 210 ------- 0 0.0 1.0 155 155
- 0.5208 0 1 cbr 210 ------- 0 0.0 1.0 155 155
r 0.5224 0 1 cbr 210 ------- 0 0.0 1.0 152 152
+ 0.52416 0 1 cbr 210 ------- 0 0.0 1.0 156 156
- 0.52416 0 1 cbr 210 ------- 0 0.0 1.0 156 156
r 0.52576 0 1 cbr 210 ------- 0 0.0 1.0 153 153
+ 0.52752 0 1 cbr 210 ------- 0 0.0 1.0 157 157
- 0.52752 0 1 cbr 210 ------- 0 0.0 1.0 157 157
r 0.52912 0 1 cbr 210 ------- 0 0.0 1.0 154 154
+ 0.53088 0 1 cbr 210 ------- 0 0.0 1.0 158 158
- 0.53088 0 1 cbr 210 ------- 0 0.0 1.0 158 158
r 0.53248 0 1 cbr 210 ------- 0 0.0 1.0 155 155
+ 0.53424 0 1 cbr 210 ------- 0 0.0 1.0 159 159
- 0.53424 0 1 cbr 210 ------- 0 0.0 1.0 159 159
r 0.53584 0 1 cbr 210 ------- 0 0.0 1.0 156 156
+ 0.5376 0 1 cbr 210 ------- 0 0.0 1.0 160 160
- 0.5376 0 1 cbr 210 ------- 0 0.0 1.0 160 160
r 0.5392 0 1 cbr 210 ------- 0 0.0 1.0 157 157
+ 0.54096 0 1 cbr 210 ------- 0 0.0 1.0 161 161
- 0.54096 0 1 cbr 210 ------- 0 0.0 1.0 161 161
r 0.54256 0 1 cbr 210 ------- 0 0.0 1.0 158 158
+ 0.54432 0 1 cbr 210 ------- 0 0.0 1.0 162 162
- 0.54432 0 1 cbr 210 ------- 0 0.0 1.0 162 162
r 0.54592 0 1 cbr 210 ------- 0 0.0 1.0 159 159
+ 0.54768 0 1 cbr 210 ------- 0 0.0 1.0 163 163
- 0.54768 0 1 cbr 210 ------- 0 0.0 1.0 163 163
r 0.54928 0 1 cbr 210 ------- 0 0.0 1.0 160 160
+ 0.55104 0 1 cbr 210 ------- 0 0.0 1.0 164 164
- 0.55104 0 1 cbr 210 ------- 0 0.0 1.0 164 164
r 0.55264 0 1 cbr 210 ------- 0 0.0 1.0 161 161
+ 0.5544 0 1 cbr 210 ------- 0 0.0 1.0 165 165
- 0.5544 0 1 cbr 210 ------- 0 0.0 1.0 165 165
r 0.556 0 1 cbr 210 ------- 0 0.0 1.0 162 162
+ 0.55776 0 1 cbr 210 ------- 0 0.0 1.0 166 166
- 0.55776 0 1 cbr 210 ------- 0 0.0 1.0 166 166
r 0.55936 0 1 cbr 210 ------- 0 0.0 1.0 163 163
+ 0.56112 0 1 cbr 210 ------- 0 0.0 1.0 167 167
- 0.56112 0 1 cbr 210 ------- 0 0.0 1.0 167 167
r 0.56272 0 1 cbr 210 ------- 0 0.0 1.0 164 164
+ 0.56448 0 1 cbr 210 ------- 0 0.0 1.0 168 168
- 0.56448 0 1 cbr 210 ------- 0 0.0 1.0 168 168
r 0.56608 0 1 cbr 210 ------- 0 0.0 1.0 165 165
+ 0.56784 0 1 cbr 210 ------- 0 0.0 1.0 169 169
- 0.56784 0 1 cbr 210 ------- 0 0.0 1.0 169 169
r 0.56944 0 1 cbr 210 ------- 0 0.0 1.0 166 166
+ 0.5712 0 1 cbr 210 ------- 0 0.0 1.0 170 170
- 0.5712 0 1 cbr 210 ------- 0 0.0 1.0 170 170
r 0.5728 0 1 cbr 210 ------- 0 0.0 1.0 167 167
+ 0.57456 0 1 cbr 210 ------- 0 0.0 1.0 171 171
- 0.57456 0 1 cbr 210 ------- 0 0.0 1.0 171 171
r 0.57616 0 1 cbr 210 ------- 0 0.0 1.0 168 168
+ 0.57792 0 1 cbr 210 ------- 0 0.0 1.0 172 172
- 0.57792 0 1 cbr 210 ------- 0 0.0 1.0 172 172
r 0.57952 0 1 cbr 210 ------- 0 0.0 1.0 169 169
+ 0.58128 0 1 cbr 210 ------- 0 0.0 1.0 173 173
- 0.58128 0 1 cbr 210 ------- 0 0.0 1.0 173 173
r 0.58288 0 1 cbr 210 ------- 0 0.0 1.0 170 170
+ 0.58464 0 1 cbr 210 ------- 0 0.0 1.0 174 174
- 0.58464 0 1 cbr 210 ------- 0 0.0 1.0 174 174
r 0.58624 0 1 cbr 210 ------- 0 0.0 1.0 171 171
+ 0.588 0 1 cbr 210 ------- 0 0.0 1.0 175 175
- 0.588 0 1 cbr 210 ------- 0 0.0 1.0 175 175
r 0.5896 0 1 cbr 210 ------- 0 0.0 1.0 172 172
+ 0.59136 0 1 cbr 210 ------- 0 0.0 1.0 176 176
- 0.59136 0 1 cbr 210 ------- 0 0.0 1.0 176 176
r 0.59296 0 1 cbr 210 ------- 0 0.0 1.0 173 173
+ 0.59472 0 1 cbr 210 ------- 0 0.0 1.0 177 177
- 0.59472 0 1 cbr 210 ------- 0 0.0 1.0 177 177
r 0.59632 0 1 cbr 210 ------- 0 0.0 1.0 174 174
+ 0.59808 0 1 cbr 210 ------- 0 0.0 1.0 178 178
- 0.59808 0 1 cbr 210 ------- 0 0.0 1.0 178 178
r 0.59968 0 1 cbr 210 ------- 0 0.0 1.0 175 175
+ 0.60144 0 1 cbr 210 ------- 0 0.0 1.0 179 179
- 0.60144 0 1 cbr 210 ------- 0 0.0 1.0 179 179
r 0.60304 0 1 cbr 210 ------- 0 0.0 1.0 176 176
+ 0.6048 0 1 cbr 210 ------- 0 0.0 1.0 180 180
- 0.6048 0 1 cbr 210 ------- 0 0.0 1.0 180 180
r 0.6064 0 1 cbr 210 ------- 0 0.0 1.0 177 177
+ 0.60816 0 1 cbr 210 ------- 0 0.0 1.0 181 181
- 0.60816 0 1 cbr 210 ------- 0 0.0 1.0 181 181
r 0.60976 0 1 cbr 210 ------- 0 0.0 1.0 178 178
+ 0.61152 0 1 cbr 210 ------- 0 0.0 1.0 182 182
- 0.61152 0 1 cbr 210 ------- 0 0.0 1.0 182 182
r 0.61312 0 1 cbr 210 ------- 0 0.0 1.0 179 179
+ 0.61488 0 1 cbr 210 ------- 0 0.0 1.0 183 183
- 0.61488 0 1 cbr 210 ------- 0 0.0 1.0 183 183
r 0.61648 0 1 cbr 210 ------- 0 0.0 1.0 180 180
+ 0.61824 0 1 cbr 210 ------- 0 0.0 1.0 184 184
- 0.61824 0 1 cbr 210 ------- 0 0.0 1.0 184 184
r 0.61984 0 1 cbr 210 ------- 0 0.0 1.0 181 181
+ 0.6216 0 1 cbr 210 ------- 0 0.0 1.0 185 185
- 0.6216 0 1 cbr 210 ------- 0 0.0 1.0 185 185
r 0.6232 0 1 cbr 210 ------- 0 0.0 1.0 182 182
+ 0.62496 0 1 cbr 210 ------- 0 0.0 1.0 186 186
- 0.62496 0 1 cbr 210 ------- 0 0.0 1.0 186 186
r 0.62656 0 1 cbr 210 ------- 0 0.0 1.0 183 183
+ 0.62832 0 1 cbr 210 ------- 0 0.0 1.0 187 187
- 0.62832 0 1 cbr 210 ------- 0 0.0 1.0 187 187
r 0.62992 0 1 cbr 210 ------- 0 0.0 1.0 184 184
+ 0.63168 0 1 cbr 210 ------- 0 0.0 1.0 188 188
- 0.63168 0 1 cbr 210 ------- 0 0.0 1.0 188 188
r 0.63328 0 1 cbr 210 ------- 0 0.0 1.0 185 185
+ 0.63504 0 1 cbr 210 ------- 0 0.0 1.0 189 189
- 0.63504 0 1 cbr 210 ------- 0 0.0 1.0 189 189
r 0.63664 0 1 cbr 210 ------- 0 0.0 1.0 186 186
+ 0.6384 0 1 cbr 210 ------- 0 0.0 1.0 190 190
- 0.6384 0 1 cbr 210 ------- 0 0.0 1.0 190 190
r 0.64 0 1 cbr 210 ------- 0 0.0 1.0 187 187
+ 0.64176 0 1 cbr 210 ------- 0 0.0 1.0 191 191
- 0.64176 0 1 cbr 210 ------- 0 0.0 1.0 191 191
r 0.64336 0 1 cbr 210 ------- 0 0.0 1.0 188 188
+ 0.64512 0 1 cbr 210 ------- 0 0.0 1.0 192 192
- 0.64512 0 1 cbr 210 ------- 0 0.0 1.0 192 192
r 0.64672 0 1 cbr 210 ------- 0 0.0 1.0 189 189
+ 0.64848 0 1 cbr 210 ------- 0 0.0 1.0 193 193
- 0.64848 0 1 cbr 210 ------- 0 0.0 1.0 193 193
r 0.65008 0 1 cbr 210 ------- 0 0.0 1.0 190 190
+ 0.65184 0 1 cbr 210 ------- 0 0.0 1.0 194 194
- 0.65184 0 1 cbr 210 ------- 0 0.0 1.0 194 194
r 0.65344 0 1 cbr 210 ------- 0 0.0 1.0 191 191
+ 0.6552 0 1 cbr 210 ------- 0 0.0 1.0 195 195
- 0.6552 0 1 cbr 210 ------- 0 0.0 1.0 195 195
r 0.6568 0 1 cbr 210 ------- 0 0.0 1.0 192 192
+ 0.65856 0 1 cbr 210 ------- 0 0.0 1.0 196 196
- 0.65856 0 1 cbr 210 ------- 0 0.0 1.0 196 196
r 0.66016 0 1 cbr 210 ------- 0 0.0 1.0 193 193
+ 0.66192 0 1 cbr 210 ------- 0 0.0 1.0 197 197
- 0.66192 0 1 cbr 210 ------- 0 0.0 1.0 197 197
r 0.66352 0 1 cbr 210 ------- 0 0.0 1.0 194 194
+ 0.66528 0 1 cbr 210 ------- 0 0.0 1.0 198 198
- 0.66528 0 1 cbr 210 ------- 0 0.0 1.0 198 198
r 0.66688 0 1 cbr 210 ------- 0 0.0 1.0 195 195
+ 0.66864 0 1 cbr 210 ------- 0 0.0 1.0 199 199
- 0.66864 0 1 cbr 210 ------- 0 0.0 1.0 199 199
r 0.67024 0 1 cbr 210 ------- 0 0.0 1.0 196 196
+ 0.672 0 1 cbr 210 ------- 0 0.0 1.0 200 200
- 0.672 0 1 cbr 210 ------- 0 0.0 1.0 200 200
r 0.6736 0 1 cbr 210 ------- 0 0.0 1.0 197 197
+ 0.67536 0 1 cbr 210 ------- 0 0.0 1.0 201 201
- 0.67536 0 1 cbr 210 ------- 0 0.0 1.0 201 201
r 0.67696 0 1 cbr 210 ------- 0 0.0 1.0 198 198
+ 0.67872 0 1 cbr 210 ------- 0 0.0 1.0 202 202
- 0.67872 0 1 cbr 210 ------- 0 0.0 1.0 202 202
r 0.68032 0 1 cbr 210 ------- 0 0.0 1.0 199 199
+ 0.68208 0 1 cbr 210 ------- 0 0.0 1.0 203 203
- 0.68208 0 1 cbr 210 ------- 0 0.0 1.0 203 203
r 0.68368 0 1 cbr 210 ------- 0 0.0 1.0 200 200
+ 0.68544 0 1 cbr 210 ------- 0 0.0 1.0 204 204
- 0.68544 0 1 cbr 210 ------- 0 0.0 1.0 204 204
r 0.68704 0 1 cbr 210 ------- 0 0.0 1.0 201 201
+ 0.6888 0 1 cbr 210 ------- 0 0.0 1.0 205 205
- 0.6888 0 1 cbr 210 ------- 0 0.0 1.0 205 205
r 0.6904 0 1 cbr 210 ------- 0 0.0 1.0 202 202
+ 0.69216 0 1 cbr 210 ------- 0 0.0 1.0 206 206
- 0.69216 0 1 cbr 210 ------- 0 0.0 1.0 206 206
r 0.69376 0 1 cbr 210 ------- 0 0.0 1.0 203 203
+ 0.69552 0 1 cbr 210 ------- 0 0.0 1.0 207 207
- 0.69552 0 1 cbr 210 ------- 0 0.0 1.0 207 207
r 0.69712 0 1 cbr 210 ------- 0 0.0 1.0 204 204
+ 0.69888 0 1 cbr 210 ------- 0 0.0 1.0 208 208
- 0.69888 0 1 cbr 210 ------- 0 0.0 1.0 208 208
r 0.70048 0 1 cbr 210 ------- 0 0.0 1.0 205 205
+ 0.70224 0 1 cbr 210 ------- 0 0.0 1.0 209 209
- 0.70224 0 1 cbr 210 ------- 0 0.0 1.0 209 209
r 0.70384 0 1 cbr 210 ------- 0 0.0 1.0 206 206
+ 0.7056 0 1 cbr 210 ------- 0 0.0 1.0 210 210
- 0.7056 0 1 cbr 210 ------- 0 0.0 1.0 210 210
r 0.7072 0 1 cbr 210 ------- 0 0.0 1.0 207 207
+ 0.70896 0 1 cbr 210 ------- 0 0.0 1.0 211 211
- 0.70896 0 1 cbr 210 ------- 0 0.0 1.0 211 211
r 0.71056 0 1 cbr 210 ------- 0 0.0 1.0 208 208
+ 0.71232 0 1 cbr 210 ------- 0 0.0 1.0 212 212
- 0.71232 0 1 cbr 210 ------- 0 0.0 1.0 212 212
r 0.71392 0 1 cbr 210 ------- 0 0.0 1.0 209 209
+ 0.71568 0 1 cbr 210 ------- 0 0.0 1.0 213 213
- 0.71568 0 1 cbr 210 ------- 0 0.0 1.0 213 213
r 0.71728 0 1 cbr 210 ------- 0 0.0 1.0 210 210
+ 0.71904 0 1 cbr 210 ------- 0 0.0 1.0 214 214
- 0.71904 0 1 cbr 210 ------- 0 0.0 1.0 214 214
r 0.72064 0 1 cbr 210 ------- 0 0.0 1.0 211 211