+ 0 0 1 cbr 210 ------- 0 0.0 1.0 0 0
- 0 0 1 cbr 210 ------- 0 0.0 1.0 0 0
+ 0.00672 0 1 cbr 210 ------- 0 0.0 1.0 1 1
- 0.00672 0 1 cbr 210 ------- 0 0.0 1.0 1 1
r 0.01168 0 1 cbr 210 ------- 0 0.0 1.0 0 0
+ 0.01344 0 1 cbr 210 ------- 0 0.0 1.0 2 2
- 0.01344 0 1 cbr 210 ------- 0 0.0 1.0 2 2
r 0.0184 0 1 cbr 210 ------- 0 0.0 1.0 1 1
+ 0.02016 0 1 cbr 210 ------- 0 0.0 1.0 3 3
- 0.02016 0 1 cbr 210 ------- 0 0.0 1.0 3 3
r 0.02512 0 1 cbr 210 ------- 0 0.0 1.0 2 2
+ 0.02688 0 1 cbr 210 ------- 0 0.0 1.0 4 4
- 0.02688 0 1 cbr 210 ------- 0 0.0 1.0 4 4
r 0.03184 0 1 cbr 210 ------- 0 0.0 1.0 3 3
+ 0.0336 0 1 cbr 210 ------- 0 0.0 1.0 5 5
- 0.0336 0 1 cbr 210 ------- 0 0.0 1.0 5 5
r 0.03856 0 1 cbr 210 ------- 0 0.0 1.0 4 4
+ 0.04032 0 1 cbr 210 ------- 0 0.0 1.0 6 6
- 0.04032 0 1 cbr 210 ------- 0 0.0 1.0 6 6
r 0.04528 0 1 cbr 210 ------- 0 0.0 1.0 5 5
+ 0.04704 0 1 cbr 210 ------- 0 0.0 1.0 7 7
- 0.04704 0 1 cbr 210 ------- 0 0.0 1.0 7 7
r 0.052 0 1 cbr 210 ------- 0 0.0 1.0 6 6
+ 0.05376 0 1 cbr 210 ------- 0 0.0 1.0 8 8
- 0.05376 0 1 cbr 210 ------- 0 0.0 1.0 8 8
r 0.05872 0 1 cbr 210 ------- 0 0.0 1.0 7 7
+ 0.06048 0 1 cbr 210 ------- 0 0.0 1.0 9 9
- 0.06048 0 1 cbr 210 ------- 0 0.0 1.0 9 9
r 0.06544 0 1 cbr 210 ------- 0 0.0 1.0 8 8
+ 0.0672 0 1 cbr 210 ------- 0 0.0 1.0 10 10
- 0.0672 0 1 cbr 210 ------- 0 0.0 1.0 10 10
r 0.07216 0 1 cbr 210 ------- 0 0.0 1.0 9 9
+ 0.07392 0 1 cbr 210 ------- 0 0.0 1.0 11 11
- 0.07392 0 1 cbr 210 ------- 0 0.0 1.0 11 11
r 0.07888 0 1 cbr 210 ------- 0 0.0 1.0 10 10
+ 0.08064 0 1 cbr 210 ------- 0 0.0 1.0 12 12
- 0.08064 0 1 cbr 210 ------- 0 0.0 1.0 12 12
r 0.0856 0 1 cbr 210 ------- 0 0.0 1.0 11 11
+ 0.08736 0 1 cbr 210 ------- 0 0.0 1.0 13 13
- 0.08736 0 1 cbr 210 ------- 0 0.0 1.0 13 13
r 0.09232 0 1 cbr 210 ------- 0 0.0 1.0 12 12
+ 0.09408 0 1 cbr 210 ------- 0 0.0 1.0 14 14
- 0.09408 0 1 cbr 210 ------- 0 0.0 1.0 14 14
r 0.09904 0 1 cbr 210 ------- 0 0.0 1.0 13 13
+ 0.1008 0 1 cbr 210 ------- 0 0.0 1.0 15 15
- 0.1008 0 1 cbr 210 ------- 0 0.0 1.0 15 15
r 0.10576 0 1 cbr 210 ------- 0 0.0 1.0 14 14
+ 0.10752 0 1 cbr 210 ------- 0 0.0 1.0 16 16
- 0.10752 0 1 cbr 210 ------- 0 0.0 1.0 16 16
r 0.11248 0 1 cbr 210 ------- 0 0.0 1.0 15 15
+ 0.11424 0 1 cbr 210 ------- 0 0.0 1.0 17 17
- 0.11424 0 1 cbr 210 ------- 0 0.0 1.0 17 17
r 0.1192 0 1 cbr 210 ------- 0 0.0 1.0 16 16
+ 0.12096 0 1 cbr 210 ------- 0 0.0 1.0 18 18
- 0.12096 0 1 cbr 210 ------- 0 0.0 1.0 18 18
r 0.12592 0 1 cbr 210 ------- 0 0.0 1.0 17 17
+ 0.12768 0 1 cbr 210 ------- 0 0.0 1.0 19 19
- 0.12768 0 1 cbr 210 ------- 0 0.0 1.0 19 19
r 0.13264 0 1 cbr 210 ------- 0 0.0 1.0 18 18
+ 0.1344 0 1 cbr 210 ------- 0 0.0 1.0 20 20
- 0.1344 0 1 cbr 210 ------- 0 0.0 1.0 20 20
r 0.13936 0 1 cbr 210 ------- 0 0.0 1.0 19 19
+ 0.14112 0 1 cbr 210 ------- 0 0.0 1.0 21 21
- 0.14112 0 1 cbr 210 ------- 0 0.0 1.0 21 21
r 0.14608 0 1 cbr 210 ------- 0 0.0 1.0 20 20
+ 0.14784 0 1 cbr 210 ------- 0 0.0 1.0 22 22
- 0.14784 0 1 cbr 210 ------- 0 0.0 1.0 22 22
r 0.1528 0 1 cbr 210 ------- 0 0.0 1.0 21 21
+ 0.15456 0 1 cbr 210 ------- 0 0.0 1.0 23 23
- 0.15456 0 1 cbr 210 ------- 0 0.0 1.0 23 23
r 0.15952 0 1 cbr 210 ------- 0 0.0 1.0 22 22
+ 0.16128 0 1 cbr 210 ------- 0 0.0 1.0 24 24
- 0.16128 0 1 cbr 210 ------- 0 0.0 1.0 24 24
r 0.16624 0 1 cbr 210 ------- 0 0.0 1.0 23 23
+ 0.168 0 1 cbr 210 ------- 0 0.0 1.0 25 25
- 0.168 0 1 cbr 210 ------- 0 0.0 1.0 25 25
r 0.17296 0 1 cbr 210 ------- 0 0.0 1.0 24 24
+ 0.17472 0 1 cbr 210 ------- 0 0.0 1.0 26 26
- 0.17472 0 1 cbr 210 ------- 0 0.0 1.0 26 26
r 0.17968 0 1 cbr 210 ------- 0 0.0 1.0 25 25
+ 0.18144 0 1 cbr 210 ------- 0 0.0 1.0 27 27
- 0.18144 0 1 cbr 210 ------- 0 0.0 1.0 27 27
r 0.1864 0 1 cbr 210 ------- 0 0.0 1.0 26 26
+ 0.18816 0 1 cbr 210 ------- 0 0.0 1.0 28 28
- 0.18816 0 1 cbr 210 ------- 0 0.0 1.0 28 28
r 0.19312 0 1 cbr 210 ------- 0 0.0 1.0 27 27
+ 0.19488 0 1 cbr 210 ------- 0 0.0 1.0 29 29
- 0.19488 0 1 cbr 210 ------- 0 0.0 1.0 29 29
r 0.19984 0 1 cbr 210 ------- 0 0.0 1.0 28 28
+ 0.2016 0 1 cbr 210 ------- 0 0.0 1.0 30 30
- 0.2016 0 1 cbr 210 ------- 0 0.0 1.0 30 30
r 0.20656 0 1 cbr 210 ------- 0 0.0 1.0 29 29
+ 0.20832 0 1 cbr 210 ------- 0 0.0 1.0 31 31
- 0.20832 0 1 cbr 210 ------- 0 0.0 1.0 31 31
r 0.21328 0 1 cbr 210 ------- 0 0.0 1.0 30 30
+ 0.21504 0 1 cbr 210 ------- 0 0.0 1.0 32 32
- 0.21504 0 1 cbr 210 ------- 0 0.0 1.0 32 32
r 0.22 0 1 cbr 210 ------- 0 0.0 1.0 31 31
+ 0.22176 0 1 cbr 210 ------- 0 0.0 1.0 33 33
- 0.22176 0 1 cbr 210 ------- 0 0.0 1.0 33 33
r 0.22672 0 1 cbr 210 ------- 0 0.0 1.0 32 32
+ 0.22848 0 1 cbr 210 ------- 0 0.0 1.0 34 34
- 0.22848 0 1 cbr 210 ------- 0 0.0 1.0 34 34
r 0.23344 0 1 cbr 210 ------- 0 0.0 1.0 33 33
+ 0.2352 0 1 cbr 210 ------- 0 0.0 1.0 35 35
- 0.2352 0 1 cbr 210 ------- 0 0.0 1.0 35 35
r 0.24016 0 1 cbr 210 ------- 0 0.0 1.0 34 34
+ 0.24192 0 1 cbr 210 ------- 0 0.0 1.0 36 36
- 0.24192 0 1 cbr 210 ------- 0 0.0 1.0 36 36
r 0.24688 0 1 cbr 210 ------- 0 0.0 1.0 35 35
+ 0.24864 0 1 cbr 210 ------- 0 0.0 1.0 37 37
- 0.24864 0 1 cbr 210 ------- 0 0.0 1.0 37 37
r 0.2536 0 1 cbr 210 ------- 0 0.0 1.0 36 36
+ 0.25536 0 1 cbr 210 ------- 0 0.0 1.0 38 38
- 0.25536 0 1 cbr 210 ------- 0 0.0 1.0 38 38
r 0.26032 0 1 cbr 210 ------- 0 0.0 1.0 37 37
+ 0.26208 0 1 cbr 210 ------- 0 0.0 1.0 39 39
- 0.26208 0 1 cbr 210 ------- 0 0.0 1.0 39 39
r 0.26704 0 1 cbr 210 ------- 0 0.0 1.0 38 38
+ 0.2688 0 1 cbr 210 ------- 0 0.0 1.0 40 40
- 0.2688 0 1 cbr 210 ------- 0 0.0 1.0 40 40
r 0.27376 0 1 cbr 210 ------- 0 0.0 1.0 39 39
+ 0.27552 0 1 cbr 210 ------- 0 0.0 1.0 41 41
- 0.27552 0 1 cbr 210 ------- 0 0.0 1.0 41 41
r 0.28048 0 1 cbr 210 ------- 0 0.0 1.0 40 40
+ 0.28224 0 1 cbr 210 ------- 0 0.0 1.0 42 42
- 0.28224 0 1 cbr 210 ------- 0 0.0 1.0 42 42
r 0.2872 0 1 cbr 210 ------- 0 0.0 1.0 41 41
+ 0.28896 0 1 cbr 210 ------- 0 0.0 1.0 43 43
- 0.28896 0 1 cbr 210 ------- 0 0.0 1.0 43 43
r 0.29392 0 1 cbr 210 ------- 0 0.0 1.0 42 42
+ 0.29568 0 1 cbr 210 ------- 0 0.0 1.0 44 44
- 0.29568 0 1 cbr 210 ------- 0 0.0 1.0 44 44
r 0.30064 0 1 cbr 210 ------- 0 0.0 1.0 43 43
+ 0.3024 0 1 cbr 210 ------- 0 0.0 1.0 45 45
- 0.3024 0 1 cbr 210 ------- 0 0.0 1.0 45 45
r 0.30736 0 1 cbr 210 ------- 0 0.0 1.0 44 44
+ 0.30912 0 1 cbr 210 ------- 0 0.0 1.0 46 46
- 0.30912 0 1 cbr 210 ------- 0 0.0 1.0 46 46
r 0.31408 0 1 cbr 210 ------- 0 0.0 1.0 45 45
+ 0.31584 0 1 cbr 210 ------- 0 0.0 1.0 47 47
- 0.31584 0 1 cbr 210 ------- 0 0.0 1.0 47 47
r 0.3208 0 1 cbr 210 ------- 0 0.0 1.0 46 46
+ 0.32256 0 1 cbr 210 ------- 0 0.0 1.0 48 48
- 0.32256 0 1 cbr 210 ------- 0 0.0 1.0 48 48
r 0.32752 0 1 cbr 210 ------- 0 0.0 1.0 47 47
+ 0.32928 0 1 cbr 210 ------- 0 0.0 1.0 49 49
- 0.32928 0 1 cbr 210 ------- 0 0.0 1.0 49 49
r 0.33424 0 1 cbr 210 ------- 0 0.0 1.0 48 48
+ 0.336 0 1 cbr 210 ------- 0 0.0 1.0 50 50
- 0.336 0 1 cbr 210 ------- 0 0.0 1.0 50 50
r 0.34096 0 1 cbr 210 ------- 0 0.0 1.0 49 49
+ 0.34272 0 1 cbr 210 ------- 0 0.0 1.0 51 51
- 0.34272 0 1 cbr 210 ------- 0 0.0 1.0 51 51
r 0.34768 0 1 cbr 210 ------- 0 0.0 1.0 50 50
+ 0.34944 0 1 cbr 210 ------- 0 0.0 1.0 52 52
- 0.34944 0 1 cbr 210 ------- 0 0.0 1.0 52 52
r 0.3544 0 1 cbr 210 ------- 0 0.0 1.0 51 51
+ 0.35616 0 1 cbr 210 ------- 0 0.0 1.0 53 53
- 0.35616 0 1 cbr 210 ------- 0 0.0 1.0 53 53
r 0.36112 0 1 cbr 210 ------- 0 0.0 1.0 52 52
+ 0.36288 0 1 cbr 210 ------- 0 0.0 1.0 54 54
- 0.36288 0 1 cbr 210 ------- 0 0.0 1.0 54 54
r 0.36784 0 1 cbr 210 ------- 0 0.0 1.0 53 53
+ 0.3696 0 1 cbr 210 ------- 0 0.0 1.0 55 55
- 0.3696 0 1 cbr 210 ------- 0 0.0 1.0 55 55
r 0.37456 0 1 cbr 210 ------- 0 0.0 1.0 54 54
+ 0.37632 0 1 cbr 210 ------- 0 0.0 1.0 56 56
- 0.37632 0 1 cbr 210 ------- 0 0.0 1.0 56 56
r 0.38128 0 1 cbr 210 ------- 0 0.0 1.0 55 55
+ 0.38304 0 1 cbr 210 ------- 0 0.0 1.0 57 57
- 0.38304 0 1 cbr 210 ------- 0 0.0 1.0 57 57
r 0.388 0 1 cbr 210 ------- 0 0.0 1.0 56 56
+ 0.38976 0 1 cbr 210 ------- 0 0.0 1.0 58 58
- 0.38976 0 1 cbr 210 ------- 0 0.0 1.0 58 58
r 0.39472 0 1 cbr 210 ------- 0 0.0 1.0 57 57
+ 0.39648 0 1 cbr 210 ------- 0 0.0 1.0 59 59
- 0.39648 0 1 cbr 210 ------- 0 0.0 1.0 59 59
r 0.40144 0 1 cbr 210 ------- 0 0.0 1.0 58 58
+ 0.4032 0 1 cbr 210 ------- 0 0.0 1.0 60 60
- 0.4032 0 1 cbr 210 ------- 0 0.0 1.0 60 60
r 0.40816 0 1 cbr 210 ------- 0 0.0 1.0 59 59
+ 0.40992 0 1 cbr 210 ------- 0 0.0 1.0 61 61
- 0.40992 0 1 cbr 210 ------- 0 0.0 1.0 61 61
r 0.41488 0 1 cbr 210 ------- 0 0.0 1.0 60 60
+ 0.41664 0 1 cbr 210 ------- 0 0.0 1.0 62 62
- 0.41664 0 1 cbr 210 ------- 0 0.0 1.0 62 62
r 0.4216 0 1 cbr 210 ------- 0 0.0 1.0 61 61
+ 0.42336 0 1 cbr 210 ------- 0 0.0 1.0 63 63
- 0.42336 0 1 cbr 210 ------- 0 0.0 1.0 63 63
r 0.42832 0 1 cbr 210 ------- 0 0.0 1.0 62 62
+ 0.43008 0 1 cbr 210 ------- 0 0.0 1.0 64 64
- 0.43008 0 1 cbr 210 ------- 0 0.0 1.0 64 64
r 0.43504 0 1 cbr 210 ------- 0 0.0 1.0 63 63
+ 0.4368 0 1 cbr 210 ------- 0 0.0 1.0 65 65
- 0.4368 0 1 cbr 210 ------- 0 0.0 1.0 65 65
r 0.44176 0 1 cbr 210 ------- 0 0.0 1.0 64 64
+ 0.44352 0 1 cbr 210 ------- 0 0.0 1.0 66 66
- 0.44352 0 1 cbr 210 ------- 0 0.0 1.0 66 66
r 0.44848 0 1 cbr 210 ------- 0 0.0 1.0 65 65
+ 0.45024 0 1 cbr 210 ------- 0 0.0 1.0 67 67
- 0.45024 0 1 cbr 210 ------- 0 0.0 1.0 67 67
r 0.4552 0 1 cbr 210 ------- 0 0.0 1.0 66 66
+ 0.45696 0 1 cbr 210 ------- 0 0.0 1.0 68 68
- 0.45696 0 1 cbr 210 ------- 0 0.0 1.0 68 68
r 0.46192 0 1 cbr 210 ------- 0 0.0 1.0 67 67
+ 0.46368 0 1 cbr 210 ------- 0 0.0 1.0 69 69
- 0.46368 0 1 cbr 210 ------- 0 0.0 1.0 69 69
r 0.46864 0 1 cbr 210 ------- 0 0.0 1.0 68 68
+ 0.4704 0 1 cbr 210 ------- 0 0.0 1.0 70 70
- 0.4704 0 1 cbr 210 ------- 0 0.0 1.0 70 70
r 0.47536 0 1 cbr 210 ------- 0 0.0 1.0 69 69
+ 0.47712 0 1 cbr 210 ------- 0 0.0 1.0 71 71
- 0.47712 0 1 cbr 210 ------- 0 0.0 1.0 71 71
r 0.48208 0 1 cbr 210 ------- 0 0.0 1.0 70 70
+ 0.48384 0 1 cbr 210 ------- 0 0.0 1.0 72 72
- 0.48384 0 1 cbr 210 ------- 0 0.0 1.0 72 72
r 0.4888 0 1 cbr 210 ------- 0 0.0 1.0 71 71
+ 0.49056 0 1 cbr 210 ------- 0 0.0 1.0 73 73
- 0.49056 0 1 cbr 210 ------- 0 0.0 1.0 73 73
r 0.49552 0 1 cbr 210 ------- 0 0.0 1.0 72 72
+ 0.49728 0 1 cbr 210 ------- 0 0.0 1.0 74 74
- 0.49728 0 1 cbr 210 ------- 0 0.0 1.0 74 74
r 0.50224 0 1 cbr 210 ------- 0 0.0 1.0 73 73
+ 0.504 0 1 cbr 210 ------- 0 0.0 1.0 75 75
- 0.504 0 1 cbr 210 ------- 0 0.0 1.0 75 75
r 0.50896 0 1 cbr 210 ------- 0 0.0 1.0 74 74
+ 0.51072 0 1 cbr 210 ------- 0 0.0 1.0 76 76
- 0.51072 0 1 cbr 210 ------- 0 0.0 1.0 76 76
r 0.51568 0 1 cbr 210 ------- 0 0.0 1.0 75 75
+ 0.51744 0 1 cbr 210 ------- 0 0.0 1.0 77 77
- 0.51744 0 1 cbr 210 ------- 0 0.0 1.0 77 77
r 0.5224 0 1 cbr 210 ------- 0 0.0 1.0 76 76
+ 0.52416 0 1 cbr 210 ------- 0 0.0 1.0 78 78
- 0.52416 0 1 cbr 210 ------- 0 0.0 1.0 78 78
r 0.52912 0 1 cbr 210 ------- 0 0.0 1.0 77 77
+ 0.53088 0 1 cbr 210 ------- 0 0.0 1.0 79 79
- 0.53088 0 1 cbr 210 ------- 0 0.0 1.0 79 79
r 0.53584 0 1 cbr 210 ------- 0 0.0 1.0 78 78
+ 0.5376 0 1 cbr 210 ------- 0 0.0 1.0 80 80
- 0.5376 0 1 cbr 210 ------- 0 0.0 1.0 80 80
r 0.54256 0 1 cbr 210 ------- 0 0.0 1.0 79 79
+ 0.54432 0 1 cbr 210 ------- 0 0.0 1.0 81 81
- 0.54432 0 1 cbr 210 ------- 0 0.0 1.0 81 81
r 0.54928 0 1 cbr 210 ------- 0 0.0 1.0 80 80
+ 0.55104 0 1 cbr 210 ------- 0 0.0 1.0 82 82
- 0.55104 0 1 cbr 210 ------- 0 0.0 1.0 82 82
r 0.556 0 1 cbr 210 ------- 0 0.0 1.0 81 81
+ 0.55776 0 1 cbr 210 ------- 0 0.0 1.0 83 83
- 0.55776 0 1 cbr 210 ------- 0 0.0 1.0 83 83
r 0.56272 0 1 cbr 210 ------- 0 0.0 1.0 82 82
+ 0.56448 0 1 cbr 210 ------- 0 0.0 1.0 84 84
- 0.56448 0 1 cbr 210 ------- 0 0.0 1.0 84 84
r 0.56944 0 1 cbr 210 ------- 0 0.0 1.0 83 83
+ 0.5712 0 1 cbr 210 ------- 0 0.0 1.0 85 85
- 0.5712 0 1 cbr 210 ------- 0 0.0 1.0 85 85
r 0.57616 0 1 cbr 210 ------- 0 0.0 1.0 84 84
+ 0.57792 0 1 cbr 210 ------- 0 0.0 1.0 86 86
- 0.57792 0 1 cbr 210 ------- 0 0.0 1.0 86 86
r 0.58288 0 1 cbr 210 ------- 0 0.0 1.0 85 85
+ 0.58464 0 1 cbr 210 ------- 0 0.0 1.0 87 87
- 0.58464 0 1 cbr 210 ------- 0 0.0 1.0 87 87
r 0.5896 0 1 cbr 210 ------- 0 0.0 1.0 86 86
+ 0.59136 0 1 cbr 210 ------- 0 0.0 1.0 88 88
- 0.59136 0 1 cbr 210 ------- 0 0.0 1.0 88 88
r 0.59632 0 1 cbr 210 ------- 0 0.0 1.0 87 87
+ 0.59808 0 1 cbr 210 ------- 0 0.0 1.0 89 89
- 0.59808 0 1 cbr 210 ------- 0 0.0 1.0 89 89
r 0.60304 0 1 cbr 210 ------- 0 0.0 1.0 88 88
+ 0.6048 0 1 cbr 210 ------- 0 0.0 1.0 90 90
- 0.6048 0 1 cbr 210 ------- 0 0.0 1.0 90 90
r 0.60976 0 1 cbr 210 ------- 0 0.0 1.0 89 89
+ 0.61152 0 1 cbr 210 ------- 0 0.0 1.0 91 91
- 0.61152 0 1 cbr 210 ------- 0 0.0 1.0 91 91
r 0.61648 0 1 cbr 210 ------- 0 0.0 1.0 90 90
+ 0.61824 0 1 cbr 210 ------- 0 0.0 1.0 92 92
- 0.61824 0 1 cbr 210 ------- 0 0.0 1.0 92 92
r 0.6232 0 1 cbr 210 ------- 0 0.0 1.0 91 91
+ 0.62496 0 1 cbr 210 ------- 0 0.0 1.0 93 93
- 0.62496 0 1 cbr 210 ------- 0 0.0 1.0 93 93
r 0.62992 0 1 cbr 210 ------- 0 0.0 1.0 92 92
+ 0.63168 0 1 cbr 210 ------- 0 0.0 1.0 94 94
- 0.63168 0 1 cbr 210 ------- 0 0.0 1.0 94 94
r 0.63664 0 1 cbr 210 ------- 0 0.0 1.0 93 93
+ 0.6384 0 1 cbr 210 ------- 0 0.0 1.0 95 95
- 0.6384 0 1 cbr 210 ------- 0 0.0 1.0 95 95
r 0.64336 0 1 cbr 210 ------- 0 0.0 1.0 94 94
+ 0.64512 0 1 cbr 210 ------- 0 0.0 1.0 96 96
- 0.64512 0 1 cbr 210 ------- 0 0.0 1.0 96 96
r 0.65008 0 1 cbr 210 ------- 0 0.0 1.0 95 95
+ 0.65184 0 1 cbr 210 ------- 0 0.0 1.0 97 97
- 0.65184 0 1 cbr 210 ------- 0 0.0 1.0 97 97
r 0.6568 0 1 cbr 210 ------- 0 0.0 1.0 96 96
+ 0.65856 0 1 cbr 210 ------- 0 0.0 1.0 98 98
- 0.65856 0 1 cbr 210 ------- 0 0.0 1.0 98 98
r 0.66352 0 1 cbr 210 ------- 0 0.0 1.0 97 97
+ 0.66528 0 1 cbr 210 ------- 0 0.0 1.0 99 99
- 0.66528 0 1 cbr 210 ------- 0 0.0 1.0 99 99
r 0.67024 0 1 cbr 210 ------- 0 0.0 1.0 98 98
+ 0.672 0 1 cbr 210 ------- 0 0.0 1.0 100 100
- 0.672 0 1 cbr 210 ------- 0 0.0 1.0 100 100
r 0.67696 0 1 cbr 210 ------- 0 0.0 1.0 99 99
+ 0.67872 0 1 cbr 210 ------- 0 0.0 1.0 101 101
- 0.67872 0 1 cbr 210 ------- 0 0.0 1.0 101 101
r 0.68368 0 1 cbr 210 ------- 0 0.0 1.0 100 100
+ 0.68544 0 1 cbr 210 ------- 0 0.0 1.0 102 102
- 0.68544 0 1 cbr 210 ------- 0 0.0 1.0 102 102
r 0.6904 0 1 cbr 210 ------- 0 0.0 1.0 101 101
+ 0.69216 0 1 cbr 210 ------- 0 0.0 1.0 103 103
- 0.69216 0 1 cbr 210 ------- 0 0.0 1.0 103 103
r 0.69712 0 1 cbr 210 ------- 0 0.0 1.0 102 102
+ 0.69888 0 1 cbr 210 ------- 0 0.0 1.0 104 104
- 0.69888 0 1 cbr 210 ------- 0 0.0 1.0 104 104
r 0.70384 0 1 cbr 210 ------- 0 0.0 1.0 103 103
+ 0.7056 0 1 cbr 210 ------- 0 0.0 1.0 105 105
- 0.7056 0 1 cbr 210 ------- 0 0.0 1.0 105 105
r 0.71056 0 1 cbr 210 ------- 0 0.0 1.0 104 104
+ 0.71232 0 1 cbr 210 ------- 0 0.0 1.0 106 106
- 0.71232 0 1 cbr 210 ------- 0 0.0 1.0 106 106
r 0.71728 0 1 cbr 210 ------- 0 0.0 1.0 105 105
+ 0.71904 0 1 cbr 210 ------- 0 0.0 1.0 107 107
- 0.71904 0 1 cbr 210 ------- 0 0.0 1.0 107 107
r 0.724 0 1 cbr 210 ------- 0 0.0 1.0 106 106
+ 0.72576 0 1 cbr 210 ------- 0 0.0 1.0 108 108
- 0.72576 0 1 cbr 210 ------- 0 0.0 1.0 108 108
r 0.73072 0 1 cbr 210 ------- 0 0.0 1.0 107 107
+ 0.73248 0 1 cbr 210 ------- 0 0.0 1.0 109 109
- 0.73248 0 1 cbr 210 ------- 0 0.0 1.0 109 109
r 0.73744 0 1 cbr 210 ------- 0 0.0 1.0 108 108
+ 0.7392 0 1 cbr 210 ------- 0 0.0 1.0 110 110
- 0.7392 0 1 cbr 210 ------- 0 0.0 1.0 110 110
r 0.74416 0 1 cbr 210 ------- 0 0.0 1.0 109 109
+ 0.74592 0 1 cbr 210 ------- 0 0.0 1.0 111 111
- 0.74592 0 1 cbr 210 ------- 0 0.0 1.0 111 111
r 0.75088 0 1 cbr 210 ------- 0 0.0 1.0 110 110
+ 0.75264 0 1 cbr 210 ------- 0 0.0 1.0 112 112
- 0.75264 0 1 cbr 210 ------- 0 0.0 1.0 112 112
r 0.7576 0 1 cbr 210 ------- 0 0.0 1.0 111 111
+ 0.75936 0 1 cbr 210 ------- 0 0.0 1.0 113 113
- 0.75936 0 1 cbr 210 ------- 0 0.0 1.0 113 113
r 0.76432 0 1 cbr 210 ------- 0 0.0 1.0 112 112
+ 0.76608 0 1 cbr 210 ------- 0 0.0 1.0 114 114
- 0.76608 0 1 cbr 210 ------- 0 0.0 1.0 114 114
r 0.77104 0 1 cbr 210 ------- 0 0.0 1.0 113 113
+ 0.7728 0 1 cbr 210 ------- 0 0.0 1.0 115 115
- 0.7728 0 1 cbr 210 ------- 0 0.0 1.0 115 115
r 0.77776 0 1 cbr 210 ------- 0 0.0 1.0 114 114
+ 0.77952 0 1 cbr 210 ------- 0 0.0 1.0 116 116
- 0.77952 0 1 cbr 210 ------- 0 0.0 1.0 116 116
r 0.78448 0 1 cbr 210 ------- 0 0.0 1.0 115 115
+ 0.78624 0 1 cbr 210 ------- 0 0.0 1.0 117 117
- 0.78624 0 1 cbr 210 ------- 0 0.0 1.0 117 117
r 0.7912 0 1 cbr 210 ------- 0 0.0 1.0 116 116
+ 0.79296 0 1 cbr 210 ------- 0 0.0 1.0 118 118
- 0.79296 0 1 cbr 210 ------- 0 0.0 1.0 118 118
r 0.79792 0 1 cbr 210 ------- 0 0.0 1.0 117 117
+ 0.79968 0 1 cbr 210 ------- 0 0.0 1.0 119 119
- 0.79968 0 1 cbr 210 ------- 0 0.0 1.0 119 119
r 0.80464 0 1 cbr 210 ------- 0 0.0 1.0 118 118
+ 0.8064 0 1 cbr 210 ------- 0 0.0 1.0 120 120
- 0.8064 0 1 cbr 210 ------- 0 0.0 1.0 120 120
r 0.81136 0 1 cbr 210 ------- 0 0.0 1.0 119 119
+ 0.81312 0 1 cbr 210 ------- 0 0.0 1.0 121 121
- 0.81312 0 1 cbr 210 ------- 0 0.0 1.0 121 121
r 0.81808 0 1 cbr 210 ------- 0 0.0 1.0 120 120
+ 0.81984 0 1 cbr 210 ------- 0 0.0 1.0 122 122
- 0.81984 0 1 cbr 210 ------- 0 0.0 1.0 122 122
r 0.8248 0 1 cbr 210 ------- 0 0.0 1.0 121 121
+ 0.82656 0 1 cbr 210 ------- 0 0.0 1.0 123 123
- 0.82656 0 1 cbr 210 ------- 0 0.0 1.0 123 123
r 0.83152 0 1 cbr 210 ------- 0 0.0 1.0 122 122
+ 0.83328 0 1 cbr 210 ------- 0 0.0 1.0 124 124
- 0.83328 0 1 cbr 210 ------- 0 0.0 1.0 124 124
r 0.83824 0 1 cbr 210 ------- 0 0.0 1.0 123 123
+ 0.84 0 1 cbr 210 ------- 0 0.0 1.0 125 125
- 0.84 0 1 cbr 210 ------- 0 0.0 1.0 125 125
r 0.84496 0 1 cbr 210 ------- 0 0.0 1.0 124 124
+ 0.84672 0 1 cbr 210 ------- 0 0.0 1.0 126 126
- 0.84672 0 1 cbr 210 ------- 0 0.0 1.0 126 126
r 0.85168 0 1 cbr 210 ------- 0 0.0 1.0 125 125
+ 0.85344 0 1 cbr 210 ------- 0 0.0 1.0 127 127
- 0.85344 0 1 cbr 210 ------- 0 0.0 1.0 127 127
r 0.8584 0 1 cbr 210 ------- 0 0.0 1.0 126 126
+ 0.86016 0 1 cbr 210 ------- 0 0.0 1.0 128 128
- 0.86016 0 1 cbr 210 ------- 0 0.0 1.0 128 128
r 0.86512 0 1 cbr 210 ------- 0 0.0 1.0 127 127
+ 0.86688 0 1 cbr 210 ------- 0 0.0 1.0 129 129
- 0.86688 0 1 cbr 210 ------- 0 0.0 1.0 129 129
r 0.87184 0 1 cbr 210 ------- 0 0.0 1.0 128 128
+ 0.8736 0 1 cbr 210 ------- 0 0.0 1.0 130 130
- 0.8736 0 1 cbr 210 ------- 0 0.0 1.0 130 130
r 0.87856 0 1 cbr 210 ------- 0 0.0 1.0 129 129
+ 0.88032 0 1 cbr 210 ------- 0 0.0 1.0 131 131
- 0.88032 0 1 cbr 210 ------- 0 0.0 1.0 131 131
r 0.88528 0 1 cbr 210 ------- 0 0.0 1.0 130 130
+ 0.88704 0 1 cbr 210 ------- 0 0.0 1.0 132 132
- 0.88704 0 1 cbr 210 ------- 0 0.0 1.0 132 132
r 0.892 0 1 cbr 210 ------- 0 0.0 1.0 131 131
+ 0.89376 0 1 cbr 210 ------- 0 0.0 1.0 133 133
- 0.89376 0 1 cbr 210 ------- 0 0.0 1.0 133 133
r 0.89872 0 1 cbr 210 ------- 0 0.0 1.0 132 132
+ 0.90048 0 1 cbr 210 ------- 0 0.0 1.0 134 134
- 0.90048 0 1 cbr 210 ------- 0 0.0 1.0 134 134
r 0.90544 0 1 cbr 210 ------- 0 0.0 1.0 133 133
+ 0.9072 0 1 cbr 210 ------- 0 0.0 1.0 135 135
- 0.9072 0 1 cbr 210 ------- 0 0.0 1.0 135 135
r 0.91216 0 1 cbr 210 ------- 0 0.0 1.0 134 134
+ 0.91392 0 1 cbr 210 ------- 0 0.0 1.0 136 136
- 0.91392 0 1 cbr 210 ------- 0 0.0 1.0 136 136
r 0.91888 0 1 cbr 210 ------- 0 0.0 1.0 135 135
+ 0.92064 0 1 cbr 210 ------- 0 0.0 1.0 137 137
- 0.92064 0 1 cbr 210 ------- 0 0.0 1.0 137 137
r 0.9256 0 1 cbr 210 ------- 0 0.0 1.0 136 136
+ 0.92736 0 1 cbr 210 ------- 0 0.0 1.0 138 138
- 0.92736 0 1 cbr 210 ------- 0 0.0 1.0 138 138
r 0.93232 0 1 cbr 210 ------- 0 0.0 1.0 137 137
+ 0.93408 0 1 cbr 210 ------- 0 0.0 1.0 139 139
- 0.93408 0 1 cbr 210 ------- 0 0.0 1.0 139 139
r 0.93904 0 1 cbr 210 ------- 0 0.0 1.0 138 138
+ 0.9408 0 1 cbr 210 ------- 0 0.0 1.0 140 140
- 0.9408 0 1 cbr 210 ------- 0 0.0 1.0 140 140
r 0.94576 0 1 cbr 210 ------- 0 0.0 1.0 139 139
+ 0.94752 0 1 cbr 210 ------- 0 0.0 1.0 141 141
- 0.94752 0 1 cbr 210 ------- 0 0.0 1.0 141 141
r 0.95248 0 1 cbr 210 ------- 0 0.0 1.0 140 140
+ 0.95424 0 1 cbr 210 ------- 0 0.0 1.0 142 142
- 0.95424 0 1 cbr 210 ------- 0 0.0 1.0 142 142
r 0.9592 0 1 cbr 210 ------- 0 0.0 1.0 141 141
+ 0.96096 0 1 cbr 210 ------- 0 0.0 1.0 143 143
- 0.96096 0 1 cbr 210 ------- 0 0.0 1.0 143 143
r 0.96592 0 1 cbr 210 ------- 0 0.0 1.0 142 142
+ 0.96768 0 1 cbr 210 ------- 0 0.0 1.0 144 144
- 0.96768 0 1 cbr 210 ------- 0 0.0 1.0 144 144
r 0.97264 0 1 cbr 210 ------- 0 0.0 1.0 143 143
+ 0.9744 0 1 cbr 210 ------- 0 0.0 1.0 145 145
- 0.9744 0 1 cbr 210 ------- 0 0.0 1.0 145 145
r 0.97936 0 1 cbr 210 ------- 0 0.0 1.0 144 144
+ 0.98112 0 1 cbr 210 ------- 0 0.0 1.0 146 146
- 0.98112 0 1 cbr 210 ------- 0 0.0 1.0 146 146
r 0.98608 0 1 cbr 210 ------- 0 0.0 1.0 145 145
+ 0.98784 0 1 cbr 210 ------- 0 0.0 1.0 147 147
- 0.98784 0 1 cbr 210 ------- 0 0.0 1.0 147 147
r 0.9928 0 1 cbr 210 ------- 0 0.0 1.0 146 146
+ 0.99456 0 1 cbr 210 ------- 0 0.0 1.0 148 148
- 0.99456 0 1 cbr 210 ------- 0 0.0 1.0 148 148
r 0.99952 0 1 cbr 210 ------- 0 0.0 1.0 147 147
+ 1.00128 0 1 cbr 210 ------- 0 0.0 1.0 149 149
- 1.00128 0 1 cbr 210 ------- 0 0.0 1.0 149 149
r 1.00624 0 1 cbr 210 ------- 0 0.0 1.0 148 148
+ 1.008 0 1 cbr 210 ------- 0 0.0 1.0 150 150
- 1.008 0 1 cbr 210 ------- 0 0.0 1.0 150 150
r 1.01296 0 1 cbr 210 ------- 0 0.0 1.0 149 149
+ 1.01472 0 1 cbr 210 ------- 0 0.0 1.0 151 151
- 1.01472 0 1 cbr 210 ------- 0 0.0 1.0 151 151
r 1.01968 0 1 cbr 210 ------- 0 0.0 1.0 150 150
+ 1.02144 0 1 cbr 210 ------- 0 0.0 1.0 152 152
- 1.02144 0 1 cbr 210 ------- 0 0.0 1.0 152 152
r 1.0264 0 1 cbr 210 ------- 0 0.0 1.0 151 151
+ 1.02816 0 1 cbr 210 ------- 0 0.0 1.0 153 153
- 1.02816 0 1 cbr 210 ------- 0 0.0 1.0 153 153
r 1.03312 0 1 cbr 210 ------- 0 0.0 1.0 152 152
+ 1.03488 0 1 cbr 210 ------- 0 0.0 1.0 154 154
- 1.03488 0 1 cbr 210 ------- 0 0.0 1.0 154 154
r 1.03984 0 1 cbr 210 ------- 0 0.0 1.0 153 153
+ 1.0416 0 1 cbr 210 ------- 0 0.0 1.0 155 155
- 1.0416 0 1 cbr 210 ------- 0 0.0 1.0 155 155
r 1.04656 0 1 cbr 210 ------- 0 0.0 1.0 154 154
+ 1.04832 0 1 cbr 210 ------- 0 0.0 1.0 156 156
- 1.04832 0 1 cbr 210 ------- 0 0.0 1.0 156 156
r 1.05328 0 1 cbr 210 ------- 0 0.0 1.0 155 155
+ 1.05504 0 1 cbr 210 ------- 0 0.0 1.0 157 157
- 1.05504 0 1 cbr 210 ------- 0 0.0 1.0 157 157
r 1.06 0 1 cbr 210 ------- 0 0.0 1.0 156 156
+ 1.06176 0 1 cbr 210 ------- 0 0.0 1.0 158 158
- 1.06176 0 1 cbr 210 ------- 0 0.0 1.0 158 158
r 1.06672 0 1 cbr 210 ------- 0 0.0 1.0 157 157
+ 1.06848 0 1 cbr 210 ------- 0 0.0 1.0 159 159
- 1.06848 0 1 cbr 210 ------- 0 0.0 1.0 159 159
r 1.07344 0 1 cbr 210 ------- 0 0.0 1.0 158 158
+ 1.0752 0 1 cbr 210 ------- 0 0.0 1.0 160 160
- 1.0752 0 1 cbr 210 ------- 0 0.0 1.0 160 160
r 1.08016 0 1 cbr 210 ------- 0 0.0 1.0 159 159
+ 1.08192 0 1 cbr 210 ------- 0 0.0 1.0 161 161
- 1.08192 0 1 cbr 210 ------- 0 0.0 1.0 161 161
r 1.08688 0 1 cbr 210 ------- 0 0.0 1.0 160 160
+ 1.08864 0 1 cbr 210 ------- 0 0.0 1.0 162 162
- 1.08864 0 1 cbr 210 ------- 0 0.0 1.0 162 162
r 1.0936 0 1 cbr 210 ------- 0 0.0 1.0 161 161
+ 1.09536 0 1 cbr 210 ------- 0 0.0 1.0 163 163
- 1.09536 0 1 cbr 210 ------- 0 0.0 1.0 163 163
r 1.10032 0 1 cbr 210 ------- 0 0.0 1.0 162 162
+ 1.10208 0 1 cbr 210 ------- 0 0.0 1.0 164 164
- 1.10208 0 1 cbr 210 ------- 0 0.0 1.0 164 164
r 1.10704 0 1 cbr 210 ------- 0 0.0 1.0 163 163
+ 1.1088 0 1 cbr 210 ------- 0 0.0 1.0 165 165
- 1.1088 0 1 cbr 210 ------- 0 0.0 1.0 165 165
r 1.11376 0 1 cbr 210 ------- 0 0.0 1.0 164 164
+ 1.11552 0 1 cbr 210 ------- 0 0.0 1.0 166 166
- 1.11552 0 1 cbr 210 ------- 0 0.0 1.0 166 166
r 1.12048 0 1 cbr 210 ------- 0 0.0 1.0 165 165
+ 1.12224 0 1 cbr 210 ------- 0 0.0 1.0 167 167
- 1.12224 0 1 cbr 210 ------- 0 0.0 1.0 167 167
r 1.1272 0 1 cbr 210 ------- 0 0.0 1.0 166 166
+ 1.12896 0 1 cbr 210 ------- 0 0.0 1.0 168 168
- 1.12896 0 1 cbr 210 ------- 0 0.0 1.0 168 168
r 1.13392 0 1 cbr 210 ------- 0 0.0 1.0 167 167
+ 1.13568 0 1 cbr 210 ------- 0 0.0 1.0 169 169
- 1.13568 0 1 cbr 210 ------- 0 0.0 1.0 169 169
r 1.14064 0 1 cbr 210 ------- 0 0.0 1.0 168 168
+ 1.1424 0 1 cbr 210 ------- 0 0.0 1.0 170 170
- 1.1424 0 1 cbr 210 ------- 0 0.0 1.0 170 170
r 1.14736 0 1 cbr 210 ------- 0 0.0 1.0 169 169
+ 1.14912 0 1 cbr 210 ------- 0 0.0 1.0 171 171
- 1.14912 0 1 cbr 210 ------- 0 0.0 1.0 171 171
r 1.15408 0 1 cbr 210 ------- 0 0.0 1.0 170 170
+ 1.15584 0 1 cbr 210 ------- 0 0.0 1.0 172 172
- 1.15584 0 1 cbr 210 ------- 0 0.0 1.0 172 172
r 1.1608 0 1 cbr 210 ------- 0 0.0 1.0 171 171
+ 1.16256 0 1 cbr 210 ------- 0 0.0 1.0 173 173
- 1.16256 0 1 cbr 210 ------- 0 0.0 1.0 173 173
r 1.16752 0 1 cbr 210 ------- 0 0.0 1.0 172 172
+ 1.16928 0 1 cbr 210 ------- 0 0.0 1.0 174 174
- 1.16928 0 1 cbr 210 ------- 0 0.0 1.0 174 174
r 1.17424 0 1 cbr 210 ------- 0 0.0 1.0 173 173
+ 1.176 0 1 cbr 210 ------- 0 0.0 1.0 175 175
- 1.176 0 1 cbr 210 ------- 0 0.0 1.0 175 175
r 1.18096 0 1 cbr 210 ------- 0 0.0 1.0 174 174
+ 1.18272 0 1 cbr 210 ------- 0 0.0 1.0 176 176
- 1.18272 0 1 cbr 210 ------- 0 0.0 1.0 176 176
r 1.18768 0 1 cbr 210 ------- 0 0.0 1.0 175 175
+ 1.18944 0 1 cbr 210 ------- 0 0.0 1.0 177 177
- 1.18944 0 1 cbr 210 ------- 0 0.0 1.0 177 177
r 1.1944 0 1 cbr 210 ------- 0 0.0 1.0 176 176
+ 1.19616 0 1 cbr 210 ------- 0 0.0 1.0 178 178
- 1.19616 0 1 cbr 210 ------- 0 0.0 1.0 178 178
r 1.20112 0 1 cbr 210 ------- 0 0.0 1.0 177 177
+ 1.20288 0 1 cbr 210 ------- 0 0.0 1.0 179 179
- 1.20288 0 1 cbr 210 ------- 0 0.0 1.0 179 179
r 1.20784 0 1 cbr 210 ------- 0 0.0 1.0 178 178
+ 1.2096 0 1 cbr 210 ------- 0 0.0 1.0 180 180
- 1.2096 0 1 cbr 210 ------- 0 0.0 1.0 180 180
r 1.21456 0 1 cbr 210 ------- 0 0.0 1.0 179 179
+ 1.21632 0 1 cbr 210 ------- 0 0.0 1.0 181 181
- 1.21632 0 1 cbr 210 ------- 0 0.0 1.0 181 181
r 1.22128 0 1 cbr 210 ------- 0 0.0 1.0 180 180
+ 1.22304 0 1 cbr 210 ------- 0 0.0 1.0 182 182
- 1.22304 0 1 cbr 210 ------- 0 0.0 1.0 182 182
r 1.228 0 1 cbr 210 ------- 0 0.0 1.0 181 181
+ 1.22976 0 1 cbr 210 ------- 0 0.0 1.0 183 183
- 1.22976 0 1 cbr 210 ------- 0 0.0 1.0 183 183
r 1.23472 0 1 cbr 210 ------- 0 0.0 1.0 182 182
+ 1.23648 0 1 cbr 210 ------- 0 0.0 1.0 184 184
- 1.23648 0 1 cbr 210 ------- 0 0.0 1.0 184 184
r 1.24144 0 1 cbr 210 ------- 0 0.0 1.0 183 183
+ 1.2432 0 1 cbr 210 ------- 0 0.0 1.0 185 185
- 1.2432 0 1 cbr 210 ------- 0 0.0 1.0 185 185
r 1.24816 0 1 cbr 210 ------- 0 0.0 1.0 184 184
+ 1.24992 0 1 cbr 210 ------- 0 0.0 1.0 186 186
- 1.24992 0 1 cbr 210 ------- 0 0.0 1.0 186 186
r 1.25488 0 1 cbr 210 ------- 0 0.0 1.0 185 185
+ 1.25664 0 1 cbr 210 ------- 0 0.0 1.0 187 187
- 1.25664 0 1 cbr 210 ------- 0 0.0 1.0 187 187
r 1.2616 0 1 cbr 210 ------- 0 0.0 1.0 186 186
+ 1.26336 0 1 cbr 210 ------- 0 0.0 1.0 188 188
- 1.26336 0 1 cbr 210 ------- 0 0.0 1.0 188 188
r 1.26832 0 1 cbr 210 ------- 0 0.0 1.0 187 187
+ 1.27008 0 1 cbr 210 ------- 0 0.0 1.0 189 189
- 1.27008 0 1 cbr 210 ------- 0 0.0 1.0 189 189
r 1.27504 0 1 cbr 210 ------- 0 0.0 1.0 188 188
+ 1.2768 0 1 cbr 210 ------- 0 0.0 1.0 190 190
- 1.2768 0 1 cbr 210 ------- 0 0.0 1.0 190 190
r 1.28176 0 1 cbr 210 ------- 0 0.0 1.0 189 189
+ 1.28352 0 1 cbr 210 ------- 0 0.0 1.0 191 191
- 1.28352 0 1 cbr 210 ------- 0 0.0 1.0 191 191
r 1.28848 0 1 cbr 210 ------- 0 0.0 1.0 190 190
+ 1.29024 0 1 cbr 210 ------- 0 0.0 1.0 192 192
- 1.29024 0 1 cbr 210 ------- 0 0.0 1.0 192 192
r 1.2952 0 1 cbr 210 ------- 0 0.0 1.0 191 191
+ 1.29696 0 1 cbr 210 ------- 0 0.0 1.0 193 193
- 1.29696 0 1 cbr 210 ------- 0 0.0 1.0 193 193
r 1.30192 0 1 cbr 210 ------- 0 0.0 1.0 192 192
+ 1.30368 0 1 cbr 210 ------- 0 0.0 1.0 194 194
- 1.30368 0 1 cbr 210 ------- 0 0.0 1.0 194 194
r 1.30864 0 1 cbr 210 ------- 0 0.0 1.0 193 193
+ 1.3104 0 1 cbr 210 ------- 0 0.0 1.0 195 195
- 1.3104 0 1 cbr 210 ------- 0 0.0 1.0 195 195
r 1.31536 0 1 cbr 210 ------- 0 0.0 1.0 194 194
+ 1.31712 0 1 cbr 210 ------- 0 0.0 1.0 196 196
- 1.31712 0 1 cbr 210 ------- 0 0.0 1.0 196 196
r 1.32208 0 1 cbr 210 ------- 0 0.0 1.0 195 195
+ 1.32384 0 1 cbr 210 ------- 0 0.0 1.0 197 197
- 1.32384 0 1 cbr 210 ------- 0 0.0 1.0 197 197
r 1.3288 0 1 cbr 210 ------- 0 0.0 1.0 196 196
+ 1.33056 0 1 cbr 210 ------- 0 0.0 1.0 198 198
- 1.33056 0 1 cbr 210 ------- 0 0.0 1.0 198 198
r 1.33552 0 1 cbr 210 ------- 0 0.0 1.0 197 197
+ 1.33728 0 1 cbr 210 ------- 0 0.0 1.0 199 199
- 1.33728 0 1 cbr 210 ------- 0 0.0 1.0 199 199
r 1.34224 0 1 cbr 210 ------- 0 0.0 1.0 198 198
+ 1.344 0 1 cbr 210 ------- 0 0.0 1.0 200 200
- 1.344 0 1 cbr 210 ------- 0 0.0 1.0 200 200
r 1.34896 0 1 cbr 210 ------- 0 0.0 1.0 199 199
+ 1.35072 0 1 cbr 210 ------- 0 0.0 1.0 201 201
- 1.35072 0 1 cbr 210 ------- 0 0.0 1.0 201 201
r 1.35568 0 1 cbr 210 ------- 0 0.0 1.0 200 200
+ 1.35744 0 1 cbr 210 ------- 0 0.0 1.0 202 202
- 1.35744 0 1 cbr 210 ------- 0 0.0 1.0 202 202
r 1.3624 0 1 cbr 210 ------- 0 0.0 1.0 201 201
+ 1.36416 0 1 cbr 210 ------- 0 0.0 1.0 203 203
- 1.36416 0 1 cbr 210 ------- 0 0.0 1.0 203 203
r 1.36912 0 1 cbr 210 ------- 0 0.0 1.0 202 202
+ 1.37088 0 1 cbr 210 ------- 0 0.0 1.0 204 204
- 1.37088 0 1 cbr 210 ------- 0 0.0 1.0 204 204
r 1.37584 0 1 cbr 210 ------- 0 0.0 1.0 203 203
+ 1.3776 0 1 cbr 210 ------- 0 0.0 1.0 205 205
- 1.3776 0 1 cbr 210 ------- 0 0.0 1.0 205 205
r 1.38256 0 1 cbr 210 ------- 0 0.0 1.0 204 204
+ 1.38432 0 1 cbr 210 ------- 0 0.0 1.0 206 206
- 1.38432 0 1 cbr 210 ------- 0 0.0 1.0 206 206
r 1.38928 0 1 cbr 210 ------- 0 0.0 1.0 205 205
+ 1.39104 0 1 cbr 210 ------- 0 0.0 1.0 207 207
- 1.39104 0 1 cbr 210 ------- 0 0.0 1.0 207 207
r 1.396 0 1 cbr 210 ------- 0 0.0 1.0 206 206
+ 1.39776 0 1 cbr 210 ------- 0 0.0 1.0 208 208
- 1.39776 0 1 cbr 210 ------- 0 0.0 1.0 208 208
r 1.40272 0 1 cbr 210 ------- 0 0.0 1.0 207 207
+ 1.40448 0 1 cbr 210 ------- 0 0.0 1.0 209 209
- 1.40448 0 1 cbr 210 ------- 0 0.0 1.0 209 209
r 1.40944 0 1 cbr 210 ------- 0 0.0 1.0 208 208
+ 1.4112 0 1 cbr 210 ------- 0 0.0 1.0 210 210
- 1.4112 0 1 cbr 210 ------- 0 0.0 1.0 210 210
r 1.41616 0 1 cbr 210 ------- 0 0.0 1.0 209 209
+ 1.41792 0 1 cbr 210 ------- 0 0.0 1.0 211 211
- 1.41792 0 1 cbr 210 ------- 0 0.0 1.0 211 211
r 1.42288 0 1 cbr 210 ------- 0 0.0 1.0 210 210
+ 1.42464 0 1 cbr 210 ------- 0 0.0 1.0 212 212
- 1.42464 0 1 cbr 210 ------- 0 0.0 1.0 212 212
r 1.4296 0 1 cbr 210 ------- 0 0.0 1.0 211 211
+ 1.43136 0 1 cbr 210 ------- 0 0.0 1.0 213 213
- 1.43136 0 1 cbr 210 ------- 0 0.0 1.0 213 213
r 1.43632 0 1 cbr 210 ------- 0 0.0 1.0 212 212
+ 1.43808 0 1 cbr 210 ------- 0 0.0 1.0 214 214