+ 0 0 1 cbr 210 ------- 0 0.0 1.0 0 0
- 0 0 1 cbr 210 ------- 0 0.0 1.0 0 0
+ 0.00056 0 1 cbr 210 ------- 0 0.0 1.0 1 1
+ 0.00112 0 1 cbr 210 ------- 0 0.0 1.0 2 2
+ 0.00168 0 1 cbr 210 ------- 0 0.0 1.0 3 3
- 0.00168 0 1 cbr 210 ------- 0 0.0 1.0 1 1
+ 0.00224 0 1 cbr 210 ------- 0 0.0 1.0 4 4
+ 0.0028 0 1 cbr 210 ------- 0 0.0 1.0 5 5
+ 0.00336 0 1 cbr 210 ------- 0 0.0 1.0 6 6
- 0.00336 0 1 cbr 210 ------- 0 0.0 1.0 2 2
+ 0.00392 0 1 cbr 210 ------- 0 0.0 1.0 7 7
+ 0.00448 0 1 cbr 210 ------- 0 0.0 1.0 8 8
+ 0.00504 0 1 cbr 210 ------- 0 0.0 1.0 9 9
- 0.00504 0 1 cbr 210 ------- 0 0.0 1.0 3 3
+ 0.0056 0 1 cbr 210 ------- 0 0.0 1.0 10 10
+ 0.00616 0 1 cbr 210 ------- 0 0.0 1.0 11 11
+ 0.00672 0 1 cbr 210 ------- 0 0.0 1.0 12 12
- 0.00672 0 1 cbr 210 ------- 0 0.0 1.0 4 4
+ 0.00728 0 1 cbr 210 ------- 0 0.0 1.0 13 13
+ 0.00784 0 1 cbr 210 ------- 0 0.0 1.0 14 14
+ 0.0084 0 1 cbr 210 ------- 0 0.0 1.0 15 15
- 0.0084 0 1 cbr 210 ------- 0 0.0 1.0 5 5
+ 0.00896 0 1 cbr 210 ------- 0 0.0 1.0 16 16
+ 0.00952 0 1 cbr 210 ------- 0 0.0 1.0 17 17
+ 0.01008 0 1 cbr 210 ------- 0 0.0 1.0 18 18
- 0.01008 0 1 cbr 210 ------- 0 0.0 1.0 6 6
+ 0.01064 0 1 cbr 210 ------- 0 0.0 1.0 19 19
+ 0.0112 0 1 cbr 210 ------- 0 0.0 1.0 20 20
r 0.01168 0 1 cbr 210 ------- 0 0.0 1.0 0 0
+ 0.01176 0 1 cbr 210 ------- 0 0.0 1.0 21 21
- 0.01176 0 1 cbr 210 ------- 0 0.0 1.0 7 7
+ 0.01232 0 1 cbr 210 ------- 0 0.0 1.0 22 22
+ 0.01288 0 1 cbr 210 ------- 0 0.0 1.0 23 23
r 0.01336 0 1 cbr 210 ------- 0 0.0 1.0 1 1
+ 0.01344 0 1 cbr 210 ------- 0 0.0 1.0 24 24
- 0.01344 0 1 cbr 210 ------- 0 0.0 1.0 8 8
+ 0.014 0 1 cbr 210 ------- 0 0.0 1.0 25 25
+ 0.01456 0 1 cbr 210 ------- 0 0.0 1.0 26 26
r 0.01504 0 1 cbr 210 ------- 0 0.0 1.0 2 2
+ 0.01512 0 1 cbr 210 ------- 0 0.0 1.0 27 27
- 0.01512 0 1 cbr 210 ------- 0 0.0 1.0 9 9
+ 0.01568 0 1 cbr 210 ------- 0 0.0 1.0 28 28
+ 0.01624 0 1 cbr 210 ------- 0 0.0 1.0 29 29
r 0.01672 0 1 cbr 210 ------- 0 0.0 1.0 3 3
+ 0.0168 0 1 cbr 210 ------- 0 0.0 1.0 30 30
- 0.0168 0 1 cbr 210 ------- 0 0.0 1.0 10 10
+ 0.01736 0 1 cbr 210 ------- 0 0.0 1.0 31 31
+ 0.01792 0 1 cbr 210 ------- 0 0.0 1.0 32 32
r 0.0184 0 1 cbr 210 ------- 0 0.0 1.0 4 4
+ 0.01848 0 1 cbr 210 ------- 0 0.0 1.0 33 33
- 0.01848 0 1 cbr 210 ------- 0 0.0 1.0 11 11
+ 0.01904 0 1 cbr 210 ------- 0 0.0 1.0 34 34
+ 0.0196 0 1 cbr 210 ------- 0 0.0 1.0 35 35
r 0.02008 0 1 cbr 210 ------- 0 0.0 1.0 5 5
- 0.02016 0 1 cbr 210 ------- 0 0.0 1.0 12 12
+ 0.02016 0 1 cbr 210 ------- 0 0.0 1.0 36 36
+ 0.02072 0 1 cbr 210 ------- 0 0.0 1.0 37 37
+ 0.02128 0 1 cbr 210 ------- 0 0.0 1.0 38 38
r 0.02176 0 1 cbr 210 ------- 0 0.0 1.0 6 6
- 0.02184 0 1 cbr 210 ------- 0 0.0 1.0 13 13
+ 0.02184 0 1 cbr 210 ------- 0 0.0 1.0 39 39
+ 0.0224 0 1 cbr 210 ------- 0 0.0 1.0 40 40
+ 0.02296 0 1 cbr 210 ------- 0 0.0 1.0 41 41
r 0.02344 0 1 cbr 210 ------- 0 0.0 1.0 7 7
- 0.02352 0 1 cbr 210 ------- 0 0.0 1.0 14 14
+ 0.02352 0 1 cbr 210 ------- 0 0.0 1.0 42 42
+ 0.02408 0 1 cbr 210 ------- 0 0.0 1.0 43 43
+ 0.02464 0 1 cbr 210 ------- 0 0.0 1.0 44 44
r 0.02512 0 1 cbr 210 ------- 0 0.0 1.0 8 8
- 0.0252 0 1 cbr 210 ------- 0 0.0 1.0 15 15
+ 0.0252 0 1 cbr 210 ------- 0 0.0 1.0 45 45
+ 0.02576 0 1 cbr 210 ------- 0 0.0 1.0 46 46
+ 0.02632 0 1 cbr 210 ------- 0 0.0 1.0 47 47
r 0.0268 0 1 cbr 210 ------- 0 0.0 1.0 9 9
- 0.02688 0 1 cbr 210 ------- 0 0.0 1.0 16 16
+ 0.02688 0 1 cbr 210 ------- 0 0.0 1.0 48 48
+ 0.02744 0 1 cbr 210 ------- 0 0.0 1.0 49 49
+ 0.028 0 1 cbr 210 ------- 0 0.0 1.0 50 50
r 0.02848 0 1 cbr 210 ------- 0 0.0 1.0 10 10
- 0.02856 0 1 cbr 210 ------- 0 0.0 1.0 17 17
+ 0.02856 0 1 cbr 210 ------- 0 0.0 1.0 51 51
+ 0.02912 0 1 cbr 210 ------- 0 0.0 1.0 52 52
+ 0.02968 0 1 cbr 210 ------- 0 0.0 1.0 53 53
r 0.03016 0 1 cbr 210 ------- 0 0.0 1.0 11 11
- 0.03024 0 1 cbr 210 ------- 0 0.0 1.0 18 18
+ 0.03024 0 1 cbr 210 ------- 0 0.0 1.0 54 54
+ 0.0308 0 1 cbr 210 ------- 0 0.0 1.0 55 55
+ 0.03136 0 1 cbr 210 ------- 0 0.0 1.0 56 56
r 0.03184 0 1 cbr 210 ------- 0 0.0 1.0 12 12
- 0.03192 0 1 cbr 210 ------- 0 0.0 1.0 19 19
+ 0.03192 0 1 cbr 210 ------- 0 0.0 1.0 57 57
+ 0.03248 0 1 cbr 210 ------- 0 0.0 1.0 58 58
+ 0.03304 0 1 cbr 210 ------- 0 0.0 1.0 59 59
r 0.03352 0 1 cbr 210 ------- 0 0.0 1.0 13 13
- 0.0336 0 1 cbr 210 ------- 0 0.0 1.0 20 20
+ 0.0336 0 1 cbr 210 ------- 0 0.0 1.0 60 60
+ 0.03416 0 1 cbr 210 ------- 0 0.0 1.0 61 61
+ 0.03472 0 1 cbr 210 ------- 0 0.0 1.0 62 62
r 0.0352 0 1 cbr 210 ------- 0 0.0 1.0 14 14
- 0.03528 0 1 cbr 210 ------- 0 0.0 1.0 21 21
+ 0.03528 0 1 cbr 210 ------- 0 0.0 1.0 63 63
+ 0.03584 0 1 cbr 210 ------- 0 0.0 1.0 64 64
+ 0.0364 0 1 cbr 210 ------- 0 0.0 1.0 65 65
r 0.03688 0 1 cbr 210 ------- 0 0.0 1.0 15 15
- 0.03696 0 1 cbr 210 ------- 0 0.0 1.0 22 22
+ 0.03696 0 1 cbr 210 ------- 0 0.0 1.0 66 66
+ 0.03752 0 1 cbr 210 ------- 0 0.0 1.0 67 67
+ 0.03808 0 1 cbr 210 ------- 0 0.0 1.0 68 68
r 0.03856 0 1 cbr 210 ------- 0 0.0 1.0 16 16
+ 0.03864 0 1 cbr 210 ------- 0 0.0 1.0 69 69
- 0.03864 0 1 cbr 210 ------- 0 0.0 1.0 23 23
+ 0.0392 0 1 cbr 210 ------- 0 0.0 1.0 70 70
+ 0.03976 0 1 cbr 210 ------- 0 0.0 1.0 71 71
r 0.04024 0 1 cbr 210 ------- 0 0.0 1.0 17 17
+ 0.04032 0 1 cbr 210 ------- 0 0.0 1.0 72 72
- 0.04032 0 1 cbr 210 ------- 0 0.0 1.0 24 24
+ 0.04088 0 1 cbr 210 ------- 0 0.0 1.0 73 73
+ 0.04144 0 1 cbr 210 ------- 0 0.0 1.0 74 74
d 0.04144 0 1 cbr 210 ------- 0 0.0 1.0 74 74
r 0.04192 0 1 cbr 210 ------- 0 0.0 1.0 18 18
+ 0.042 0 1 cbr 210 ------- 0 0.0 1.0 75 75
d 0.042 0 1 cbr 210 ------- 0 0.0 1.0 75 75
- 0.042 0 1 cbr 210 ------- 0 0.0 1.0 25 25
+ 0.04256 0 1 cbr 210 ------- 0 0.0 1.0 76 76
+ 0.04312 0 1 cbr 210 ------- 0 0.0 1.0 77 77
d 0.04312 0 1 cbr 210 ------- 0 0.0 1.0 77 77
r 0.0436 0 1 cbr 210 ------- 0 0.0 1.0 19 19
+ 0.04368 0 1 cbr 210 ------- 0 0.0 1.0 78 78
d 0.04368 0 1 cbr 210 ------- 0 0.0 1.0 78 78
- 0.04368 0 1 cbr 210 ------- 0 0.0 1.0 26 26
+ 0.04424 0 1 cbr 210 ------- 0 0.0 1.0 79 79
+ 0.0448 0 1 cbr 210 ------- 0 0.0 1.0 80 80
d 0.0448 0 1 cbr 210 ------- 0 0.0 1.0 80 80
r 0.04528 0 1 cbr 210 ------- 0 0.0 1.0 20 20
+ 0.04536 0 1 cbr 210 ------- 0 0.0 1.0 81 81
d 0.04536 0 1 cbr 210 ------- 0 0.0 1.0 81 81
- 0.04536 0 1 cbr 210 ------- 0 0.0 1.0 27 27
+ 0.04592 0 1 cbr 210 ------- 0 0.0 1.0 82 82
+ 0.04648 0 1 cbr 210 ------- 0 0.0 1.0 83 83
d 0.04648 0 1 cbr 210 ------- 0 0.0 1.0 83 83
r 0.04696 0 1 cbr 210 ------- 0 0.0 1.0 21 21
+ 0.04704 0 1 cbr 210 ------- 0 0.0 1.0 84 84
d 0.04704 0 1 cbr 210 ------- 0 0.0 1.0 84 84
- 0.04704 0 1 cbr 210 ------- 0 0.0 1.0 28 28
+ 0.0476 0 1 cbr 210 ------- 0 0.0 1.0 85 85
+ 0.04816 0 1 cbr 210 ------- 0 0.0 1.0 86 86
d 0.04816 0 1 cbr 210 ------- 0 0.0 1.0 86 86
r 0.04864 0 1 cbr 210 ------- 0 0.0 1.0 22 22
+ 0.04872 0 1 cbr 210 ------- 0 0.0 1.0 87 87
d 0.04872 0 1 cbr 210 ------- 0 0.0 1.0 87 87
- 0.04872 0 1 cbr 210 ------- 0 0.0 1.0 29 29
+ 0.04928 0 1 cbr 210 ------- 0 0.0 1.0 88 88
+ 0.04984 0 1 cbr 210 ------- 0 0.0 1.0 89 89
d 0.04984 0 1 cbr 210 ------- 0 0.0 1.0 89 89
r 0.05032 0 1 cbr 210 ------- 0 0.0 1.0 23 23
+ 0.0504 0 1 cbr 210 ------- 0 0.0 1.0 90 90
d 0.0504 0 1 cbr 210 ------- 0 0.0 1.0 90 90
- 0.0504 0 1 cbr 210 ------- 0 0.0 1.0 30 30
+ 0.05096 0 1 cbr 210 ------- 0 0.0 1.0 91 91
+ 0.05152 0 1 cbr 210 ------- 0 0.0 1.0 92 92
d 0.05152 0 1 cbr 210 ------- 0 0.0 1.0 92 92
r 0.052 0 1 cbr 210 ------- 0 0.0 1.0 24 24
+ 0.05208 0 1 cbr 210 ------- 0 0.0 1.0 93 93
d 0.05208 0 1 cbr 210 ------- 0 0.0 1.0 93 93
- 0.05208 0 1 cbr 210 ------- 0 0.0 1.0 31 31
+ 0.05264 0 1 cbr 210 ------- 0 0.0 1.0 94 94
+ 0.0532 0 1 cbr 210 ------- 0 0.0 1.0 95 95
d 0.0532 0 1 cbr 210 ------- 0 0.0 1.0 95 95
r 0.05368 0 1 cbr 210 ------- 0 0.0 1.0 25 25
+ 0.05376 0 1 cbr 210 ------- 0 0.0 1.0 96 96
d 0.05376 0 1 cbr 210 ------- 0 0.0 1.0 96 96
- 0.05376 0 1 cbr 210 ------- 0 0.0 1.0 32 32
+ 0.05432 0 1 cbr 210 ------- 0 0.0 1.0 97 97
+ 0.05488 0 1 cbr 210 ------- 0 0.0 1.0 98 98
d 0.05488 0 1 cbr 210 ------- 0 0.0 1.0 98 98
r 0.05536 0 1 cbr 210 ------- 0 0.0 1.0 26 26
+ 0.05544 0 1 cbr 210 ------- 0 0.0 1.0 99 99
d 0.05544 0 1 cbr 210 ------- 0 0.0 1.0 99 99
- 0.05544 0 1 cbr 210 ------- 0 0.0 1.0 33 33
+ 0.056 0 1 cbr 210 ------- 0 0.0 1.0 100 100
+ 0.05656 0 1 cbr 210 ------- 0 0.0 1.0 101 101
d 0.05656 0 1 cbr 210 ------- 0 0.0 1.0 101 101
r 0.05704 0 1 cbr 210 ------- 0 0.0 1.0 27 27
+ 0.05712 0 1 cbr 210 ------- 0 0.0 1.0 102 102
d 0.05712 0 1 cbr 210 ------- 0 0.0 1.0 102 102
- 0.05712 0 1 cbr 210 ------- 0 0.0 1.0 34 34
+ 0.05768 0 1 cbr 210 ------- 0 0.0 1.0 103 103
+ 0.05824 0 1 cbr 210 ------- 0 0.0 1.0 104 104
d 0.05824 0 1 cbr 210 ------- 0 0.0 1.0 104 104
r 0.05872 0 1 cbr 210 ------- 0 0.0 1.0 28 28
+ 0.0588 0 1 cbr 210 ------- 0 0.0 1.0 105 105
d 0.0588 0 1 cbr 210 ------- 0 0.0 1.0 105 105
- 0.0588 0 1 cbr 210 ------- 0 0.0 1.0 35 35
+ 0.05936 0 1 cbr 210 ------- 0 0.0 1.0 106 106
+ 0.05992 0 1 cbr 210 ------- 0 0.0 1.0 107 107
d 0.05992 0 1 cbr 210 ------- 0 0.0 1.0 107 107
r 0.0604 0 1 cbr 210 ------- 0 0.0 1.0 29 29
+ 0.06048 0 1 cbr 210 ------- 0 0.0 1.0 108 108
d 0.06048 0 1 cbr 210 ------- 0 0.0 1.0 108 108
- 0.06048 0 1 cbr 210 ------- 0 0.0 1.0 36 36
+ 0.06104 0 1 cbr 210 ------- 0 0.0 1.0 109 109
+ 0.0616 0 1 cbr 210 ------- 0 0.0 1.0 110 110
d 0.0616 0 1 cbr 210 ------- 0 0.0 1.0 110 110
r 0.06208 0 1 cbr 210 ------- 0 0.0 1.0 30 30
+ 0.06216 0 1 cbr 210 ------- 0 0.0 1.0 111 111
d 0.06216 0 1 cbr 210 ------- 0 0.0 1.0 111 111
- 0.06216 0 1 cbr 210 ------- 0 0.0 1.0 37 37
+ 0.06272 0 1 cbr 210 ------- 0 0.0 1.0 112 112
+ 0.06328 0 1 cbr 210 ------- 0 0.0 1.0 113 113
d 0.06328 0 1 cbr 210 ------- 0 0.0 1.0 113 113
r 0.06376 0 1 cbr 210 ------- 0 0.0 1.0 31 31
+ 0.06384 0 1 cbr 210 ------- 0 0.0 1.0 114 114
d 0.06384 0 1 cbr 210 ------- 0 0.0 1.0 114 114
- 0.06384 0 1 cbr 210 ------- 0 0.0 1.0 38 38
+ 0.0644 0 1 cbr 210 ------- 0 0.0 1.0 115 115
+ 0.06496 0 1 cbr 210 ------- 0 0.0 1.0 116 116
d 0.06496 0 1 cbr 210 ------- 0 0.0 1.0 116 116
r 0.06544 0 1 cbr 210 ------- 0 0.0 1.0 32 32
+ 0.06552 0 1 cbr 210 ------- 0 0.0 1.0 117 117
d 0.06552 0 1 cbr 210 ------- 0 0.0 1.0 117 117
- 0.06552 0 1 cbr 210 ------- 0 0.0 1.0 39 39
+ 0.06608 0 1 cbr 210 ------- 0 0.0 1.0 118 118
+ 0.06664 0 1 cbr 210 ------- 0 0.0 1.0 119 119
d 0.06664 0 1 cbr 210 ------- 0 0.0 1.0 119 119
r 0.06712 0 1 cbr 210 ------- 0 0.0 1.0 33 33
+ 0.0672 0 1 cbr 210 ------- 0 0.0 1.0 120 120
d 0.0672 0 1 cbr 210 ------- 0 0.0 1.0 120 120
- 0.0672 0 1 cbr 210 ------- 0 0.0 1.0 40 40
+ 0.06776 0 1 cbr 210 ------- 0 0.0 1.0 121 121
+ 0.06832 0 1 cbr 210 ------- 0 0.0 1.0 122 122
d 0.06832 0 1 cbr 210 ------- 0 0.0 1.0 122 122
r 0.0688 0 1 cbr 210 ------- 0 0.0 1.0 34 34
+ 0.06888 0 1 cbr 210 ------- 0 0.0 1.0 123 123
d 0.06888 0 1 cbr 210 ------- 0 0.0 1.0 123 123
- 0.06888 0 1 cbr 210 ------- 0 0.0 1.0 41 41
+ 0.06944 0 1 cbr 210 ------- 0 0.0 1.0 124 124
+ 0.07 0 1 cbr 210 ------- 0 0.0 1.0 125 125
d 0.07 0 1 cbr 210 ------- 0 0.0 1.0 125 125
r 0.07048 0 1 cbr 210 ------- 0 0.0 1.0 35 35
+ 0.07056 0 1 cbr 210 ------- 0 0.0 1.0 126 126
d 0.07056 0 1 cbr 210 ------- 0 0.0 1.0 126 126
- 0.07056 0 1 cbr 210 ------- 0 0.0 1.0 42 42
+ 0.07112 0 1 cbr 210 ------- 0 0.0 1.0 127 127
+ 0.07168 0 1 cbr 210 ------- 0 0.0 1.0 128 128
d 0.07168 0 1 cbr 210 ------- 0 0.0 1.0 128 128
r 0.07216 0 1 cbr 210 ------- 0 0.0 1.0 36 36
+ 0.07224 0 1 cbr 210 ------- 0 0.0 1.0 129 129
d 0.07224 0 1 cbr 210 ------- 0 0.0 1.0 129 129
- 0.07224 0 1 cbr 210 ------- 0 0.0 1.0 43 43
+ 0.0728 0 1 cbr 210 ------- 0 0.0 1.0 130 130
+ 0.07336 0 1 cbr 210 ------- 0 0.0 1.0 131 131
d 0.07336 0 1 cbr 210 ------- 0 0.0 1.0 131 131
r 0.07384 0 1 cbr 210 ------- 0 0.0 1.0 37 37
- 0.07392 0 1 cbr 210 ------- 0 0.0 1.0 44 44
+ 0.07392 0 1 cbr 210 ------- 0 0.0 1.0 132 132
+ 0.07448 0 1 cbr 210 ------- 0 0.0 1.0 133 133
d 0.07448 0 1 cbr 210 ------- 0 0.0 1.0 133 133
+ 0.07504 0 1 cbr 210 ------- 0 0.0 1.0 134 134
d 0.07504 0 1 cbr 210 ------- 0 0.0 1.0 134 134
r 0.07552 0 1 cbr 210 ------- 0 0.0 1.0 38 38
- 0.0756 0 1 cbr 210 ------- 0 0.0 1.0 45 45
+ 0.0756 0 1 cbr 210 ------- 0 0.0 1.0 135 135
+ 0.07616 0 1 cbr 210 ------- 0 0.0 1.0 136 136
d 0.07616 0 1 cbr 210 ------- 0 0.0 1.0 136 136
+ 0.07672 0 1 cbr 210 ------- 0 0.0 1.0 137 137
d 0.07672 0 1 cbr 210 ------- 0 0.0 1.0 137 137
r 0.0772 0 1 cbr 210 ------- 0 0.0 1.0 39 39
- 0.07728 0 1 cbr 210 ------- 0 0.0 1.0 46 46
+ 0.07728 0 1 cbr 210 ------- 0 0.0 1.0 138 138
+ 0.07784 0 1 cbr 210 ------- 0 0.0 1.0 139 139
d 0.07784 0 1 cbr 210 ------- 0 0.0 1.0 139 139
+ 0.0784 0 1 cbr 210 ------- 0 0.0 1.0 140 140
d 0.0784 0 1 cbr 210 ------- 0 0.0 1.0 140 140
r 0.07888 0 1 cbr 210 ------- 0 0.0 1.0 40 40
- 0.07896 0 1 cbr 210 ------- 0 0.0 1.0 47 47
+ 0.07896 0 1 cbr 210 ------- 0 0.0 1.0 141 141
+ 0.07952 0 1 cbr 210 ------- 0 0.0 1.0 142 142
d 0.07952 0 1 cbr 210 ------- 0 0.0 1.0 142 142
+ 0.08008 0 1 cbr 210 ------- 0 0.0 1.0 143 143
d 0.08008 0 1 cbr 210 ------- 0 0.0 1.0 143 143
r 0.08056 0 1 cbr 210 ------- 0 0.0 1.0 41 41
- 0.08064 0 1 cbr 210 ------- 0 0.0 1.0 48 48
+ 0.08064 0 1 cbr 210 ------- 0 0.0 1.0 144 144
+ 0.0812 0 1 cbr 210 ------- 0 0.0 1.0 145 145
d 0.0812 0 1 cbr 210 ------- 0 0.0 1.0 145 145
+ 0.08176 0 1 cbr 210 ------- 0 0.0 1.0 146 146
d 0.08176 0 1 cbr 210 ------- 0 0.0 1.0 146 146
r 0.08224 0 1 cbr 210 ------- 0 0.0 1.0 42 42
- 0.08232 0 1 cbr 210 ------- 0 0.0 1.0 49 49
+ 0.08232 0 1 cbr 210 ------- 0 0.0 1.0 147 147
+ 0.08288 0 1 cbr 210 ------- 0 0.0 1.0 148 148
d 0.08288 0 1 cbr 210 ------- 0 0.0 1.0 148 148
+ 0.08344 0 1 cbr 210 ------- 0 0.0 1.0 149 149
d 0.08344 0 1 cbr 210 ------- 0 0.0 1.0 149 149
r 0.08392 0 1 cbr 210 ------- 0 0.0 1.0 43 43
- 0.084 0 1 cbr 210 ------- 0 0.0 1.0 50 50
+ 0.084 0 1 cbr 210 ------- 0 0.0 1.0 150 150
+ 0.08456 0 1 cbr 210 ------- 0 0.0 1.0 151 151
d 0.08456 0 1 cbr 210 ------- 0 0.0 1.0 151 151
+ 0.08512 0 1 cbr 210 ------- 0 0.0 1.0 152 152
d 0.08512 0 1 cbr 210 ------- 0 0.0 1.0 152 152
r 0.0856 0 1 cbr 210 ------- 0 0.0 1.0 44 44
- 0.08568 0 1 cbr 210 ------- 0 0.0 1.0 51 51
+ 0.08568 0 1 cbr 210 ------- 0 0.0 1.0 153 153
+ 0.08624 0 1 cbr 210 ------- 0 0.0 1.0 154 154
d 0.08624 0 1 cbr 210 ------- 0 0.0 1.0 154 154
+ 0.0868 0 1 cbr 210 ------- 0 0.0 1.0 155 155
d 0.0868 0 1 cbr 210 ------- 0 0.0 1.0 155 155
r 0.08728 0 1 cbr 210 ------- 0 0.0 1.0 45 45
- 0.08736 0 1 cbr 210 ------- 0 0.0 1.0 52 52
+ 0.08736 0 1 cbr 210 ------- 0 0.0 1.0 156 156
+ 0.08792 0 1 cbr 210 ------- 0 0.0 1.0 157 157
d 0.08792 0 1 cbr 210 ------- 0 0.0 1.0 157 157
+ 0.08848 0 1 cbr 210 ------- 0 0.0 1.0 158 158
d 0.08848 0 1 cbr 210 ------- 0 0.0 1.0 158 158
r 0.08896 0 1 cbr 210 ------- 0 0.0 1.0 46 46
- 0.08904 0 1 cbr 210 ------- 0 0.0 1.0 53 53
+ 0.08904 0 1 cbr 210 ------- 0 0.0 1.0 159 159
+ 0.0896 0 1 cbr 210 ------- 0 0.0 1.0 160 160
d 0.0896 0 1 cbr 210 ------- 0 0.0 1.0 160 160
+ 0.09016 0 1 cbr 210 ------- 0 0.0 1.0 161 161
d 0.09016 0 1 cbr 210 ------- 0 0.0 1.0 161 161
r 0.09064 0 1 cbr 210 ------- 0 0.0 1.0 47 47
- 0.09072 0 1 cbr 210 ------- 0 0.0 1.0 54 54
+ 0.09072 0 1 cbr 210 ------- 0 0.0 1.0 162 162
+ 0.09128 0 1 cbr 210 ------- 0 0.0 1.0 163 163
d 0.09128 0 1 cbr 210 ------- 0 0.0 1.0 163 163
+ 0.09184 0 1 cbr 210 ------- 0 0.0 1.0 164 164
d 0.09184 0 1 cbr 210 ------- 0 0.0 1.0 164 164
r 0.09232 0 1 cbr 210 ------- 0 0.0 1.0 48 48
- 0.0924 0 1 cbr 210 ------- 0 0.0 1.0 55 55
+ 0.0924 0 1 cbr 210 ------- 0 0.0 1.0 165 165
+ 0.09296 0 1 cbr 210 ------- 0 0.0 1.0 166 166
d 0.09296 0 1 cbr 210 ------- 0 0.0 1.0 166 166
+ 0.09352 0 1 cbr 210 ------- 0 0.0 1.0 167 167
d 0.09352 0 1 cbr 210 ------- 0 0.0 1.0 167 167
r 0.094 0 1 cbr 210 ------- 0 0.0 1.0 49 49
- 0.09408 0 1 cbr 210 ------- 0 0.0 1.0 56 56
+ 0.09408 0 1 cbr 210 ------- 0 0.0 1.0 168 168
+ 0.09464 0 1 cbr 210 ------- 0 0.0 1.0 169 169
d 0.09464 0 1 cbr 210 ------- 0 0.0 1.0 169 169
+ 0.0952 0 1 cbr 210 ------- 0 0.0 1.0 170 170
d 0.0952 0 1 cbr 210 ------- 0 0.0 1.0 170 170
r 0.09568 0 1 cbr 210 ------- 0 0.0 1.0 50 50
- 0.09576 0 1 cbr 210 ------- 0 0.0 1.0 57 57
+ 0.09576 0 1 cbr 210 ------- 0 0.0 1.0 171 171
+ 0.09632 0 1 cbr 210 ------- 0 0.0 1.0 172 172
d 0.09632 0 1 cbr 210 ------- 0 0.0 1.0 172 172
+ 0.09688 0 1 cbr 210 ------- 0 0.0 1.0 173 173
d 0.09688 0 1 cbr 210 ------- 0 0.0 1.0 173 173
r 0.09736 0 1 cbr 210 ------- 0 0.0 1.0 51 51
- 0.09744 0 1 cbr 210 ------- 0 0.0 1.0 58 58
+ 0.09744 0 1 cbr 210 ------- 0 0.0 1.0 174 174
+ 0.098 0 1 cbr 210 ------- 0 0.0 1.0 175 175
d 0.098 0 1 cbr 210 ------- 0 0.0 1.0 175 175
+ 0.09856 0 1 cbr 210 ------- 0 0.0 1.0 176 176
d 0.09856 0 1 cbr 210 ------- 0 0.0 1.0 176 176
r 0.09904 0 1 cbr 210 ------- 0 0.0 1.0 52 52
- 0.09912 0 1 cbr 210 ------- 0 0.0 1.0 59 59
+ 0.09912 0 1 cbr 210 ------- 0 0.0 1.0 177 177
+ 0.09968 0 1 cbr 210 ------- 0 0.0 1.0 178 178
d 0.09968 0 1 cbr 210 ------- 0 0.0 1.0 178 178
+ 0.10024 0 1 cbr 210 ------- 0 0.0 1.0 179 179
d 0.10024 0 1 cbr 210 ------- 0 0.0 1.0 179 179
r 0.10072 0 1 cbr 210 ------- 0 0.0 1.0 53 53
- 0.1008 0 1 cbr 210 ------- 0 0.0 1.0 60 60
+ 0.1008 0 1 cbr 210 ------- 0 0.0 1.0 180 180
+ 0.10136 0 1 cbr 210 ------- 0 0.0 1.0 181 181
d 0.10136 0 1 cbr 210 ------- 0 0.0 1.0 181 181
+ 0.10192 0 1 cbr 210 ------- 0 0.0 1.0 182 182
d 0.10192 0 1 cbr 210 ------- 0 0.0 1.0 182 182
r 0.1024 0 1 cbr 210 ------- 0 0.0 1.0 54 54
- 0.10248 0 1 cbr 210 ------- 0 0.0 1.0 61 61
+ 0.10248 0 1 cbr 210 ------- 0 0.0 1.0 183 183
+ 0.10304 0 1 cbr 210 ------- 0 0.0 1.0 184 184
d 0.10304 0 1 cbr 210 ------- 0 0.0 1.0 184 184
+ 0.1036 0 1 cbr 210 ------- 0 0.0 1.0 185 185
d 0.1036 0 1 cbr 210 ------- 0 0.0 1.0 185 185
r 0.10408 0 1 cbr 210 ------- 0 0.0 1.0 55 55
- 0.10416 0 1 cbr 210 ------- 0 0.0 1.0 62 62
+ 0.10416 0 1 cbr 210 ------- 0 0.0 1.0 186 186
+ 0.10472 0 1 cbr 210 ------- 0 0.0 1.0 187 187
d 0.10472 0 1 cbr 210 ------- 0 0.0 1.0 187 187
+ 0.10528 0 1 cbr 210 ------- 0 0.0 1.0 188 188
d 0.10528 0 1 cbr 210 ------- 0 0.0 1.0 188 188
r 0.10576 0 1 cbr 210 ------- 0 0.0 1.0 56 56
- 0.10584 0 1 cbr 210 ------- 0 0.0 1.0 63 63
+ 0.10584 0 1 cbr 210 ------- 0 0.0 1.0 189 189
+ 0.1064 0 1 cbr 210 ------- 0 0.0 1.0 190 190
d 0.1064 0 1 cbr 210 ------- 0 0.0 1.0 190 190
+ 0.10696 0 1 cbr 210 ------- 0 0.0 1.0 191 191
d 0.10696 0 1 cbr 210 ------- 0 0.0 1.0 191 191
r 0.10744 0 1 cbr 210 ------- 0 0.0 1.0 57 57
- 0.10752 0 1 cbr 210 ------- 0 0.0 1.0 64 64
+ 0.10752 0 1 cbr 210 ------- 0 0.0 1.0 192 192
+ 0.10808 0 1 cbr 210 ------- 0 0.0 1.0 193 193
d 0.10808 0 1 cbr 210 ------- 0 0.0 1.0 193 193
+ 0.10864 0 1 cbr 210 ------- 0 0.0 1.0 194 194
d 0.10864 0 1 cbr 210 ------- 0 0.0 1.0 194 194
r 0.10912 0 1 cbr 210 ------- 0 0.0 1.0 58 58
- 0.1092 0 1 cbr 210 ------- 0 0.0 1.0 65 65
+ 0.1092 0 1 cbr 210 ------- 0 0.0 1.0 195 195
+ 0.10976 0 1 cbr 210 ------- 0 0.0 1.0 196 196
d 0.10976 0 1 cbr 210 ------- 0 0.0 1.0 196 196
+ 0.11032 0 1 cbr 210 ------- 0 0.0 1.0 197 197
d 0.11032 0 1 cbr 210 ------- 0 0.0 1.0 197 197
r 0.1108 0 1 cbr 210 ------- 0 0.0 1.0 59 59
- 0.11088 0 1 cbr 210 ------- 0 0.0 1.0 66 66
+ 0.11088 0 1 cbr 210 ------- 0 0.0 1.0 198 198
+ 0.11144 0 1 cbr 210 ------- 0 0.0 1.0 199 199
d 0.11144 0 1 cbr 210 ------- 0 0.0 1.0 199 199
+ 0.112 0 1 cbr 210 ------- 0 0.0 1.0 200 200
d 0.112 0 1 cbr 210 ------- 0 0.0 1.0 200 200
r 0.11248 0 1 cbr 210 ------- 0 0.0 1.0 60 60
- 0.11256 0 1 cbr 210 ------- 0 0.0 1.0 67 67
+ 0.11256 0 1 cbr 210 ------- 0 0.0 1.0 201 201
+ 0.11312 0 1 cbr 210 ------- 0 0.0 1.0 202 202
d 0.11312 0 1 cbr 210 ------- 0 0.0 1.0 202 202
+ 0.11368 0 1 cbr 210 ------- 0 0.0 1.0 203 203
d 0.11368 0 1 cbr 210 ------- 0 0.0 1.0 203 203
r 0.11416 0 1 cbr 210 ------- 0 0.0 1.0 61 61
- 0.11424 0 1 cbr 210 ------- 0 0.0 1.0 68 68
+ 0.11424 0 1 cbr 210 ------- 0 0.0 1.0 204 204
+ 0.1148 0 1 cbr 210 ------- 0 0.0 1.0 205 205
d 0.1148 0 1 cbr 210 ------- 0 0.0 1.0 205 205
+ 0.11536 0 1 cbr 210 ------- 0 0.0 1.0 206 206
d 0.11536 0 1 cbr 210 ------- 0 0.0 1.0 206 206
r 0.11584 0 1 cbr 210 ------- 0 0.0 1.0 62 62
- 0.11592 0 1 cbr 210 ------- 0 0.0 1.0 69 69
+ 0.11592 0 1 cbr 210 ------- 0 0.0 1.0 207 207
+ 0.11648 0 1 cbr 210 ------- 0 0.0 1.0 208 208
d 0.11648 0 1 cbr 210 ------- 0 0.0 1.0 208 208
+ 0.11704 0 1 cbr 210 ------- 0 0.0 1.0 209 209
d 0.11704 0 1 cbr 210 ------- 0 0.0 1.0 209 209
r 0.11752 0 1 cbr 210 ------- 0 0.0 1.0 63 63
- 0.1176 0 1 cbr 210 ------- 0 0.0 1.0 70 70
+ 0.1176 0 1 cbr 210 ------- 0 0.0 1.0 210 210
+ 0.11816 0 1 cbr 210 ------- 0 0.0 1.0 211 211
d 0.11816 0 1 cbr 210 ------- 0 0.0 1.0 211 211
+ 0.11872 0 1 cbr 210 ------- 0 0.0 1.0 212 212
d 0.11872 0 1 cbr 210 ------- 0 0.0 1.0 212 212
r 0.1192 0 1 cbr 210 ------- 0 0.0 1.0 64 64
- 0.11928 0 1 cbr 210 ------- 0 0.0 1.0 71 71
+ 0.11928 0 1 cbr 210 ------- 0 0.0 1.0 213 213
+ 0.11984 0 1 cbr 210 ------- 0 0.0 1.0 214 214
d 0.11984 0 1 cbr 210 ------- 0 0.0 1.0 214 214
+ 0.1204 0 1 cbr 210 ------- 0 0.0 1.0 215 215
d 0.1204 0 1 cbr 210 ------- 0 0.0 1.0 215 215
r 0.12088 0 1 cbr 210 ------- 0 0.0 1.0 65 65
- 0.12096 0 1 cbr 210 ------- 0 0.0 1.0 72 72
+ 0.12096 0 1 cbr 210 ------- 0 0.0 1.0 216 216
+ 0.12152 0 1 cbr 210 ------- 0 0.0 1.0 217 217
d 0.12152 0 1 cbr 210 ------- 0 0.0 1.0 217 217
+ 0.12208 0 1 cbr 210 ------- 0 0.0 1.0 218 218
d 0.12208 0 1 cbr 210 ------- 0 0.0 1.0 218 218
r 0.12256 0 1 cbr 210 ------- 0 0.0 1.0 66 66
- 0.12264 0 1 cbr 210 ------- 0 0.0 1.0 73 73
+ 0.12264 0 1 cbr 210 ------- 0 0.0 1.0 219 219
+ 0.1232 0 1 cbr 210 ------- 0 0.0 1.0 220 220
d 0.1232 0 1 cbr 210 ------- 0 0.0 1.0 220 220
+ 0.12376 0 1 cbr 210 ------- 0 0.0 1.0 221 221
d 0.12376 0 1 cbr 210 ------- 0 0.0 1.0 221 221
r 0.12424 0 1 cbr 210 ------- 0 0.0 1.0 67 67
- 0.12432 0 1 cbr 210 ------- 0 0.0 1.0 76 76
+ 0.12432 0 1 cbr 210 ------- 0 0.0 1.0 222 222
+ 0.12488 0 1 cbr 210 ------- 0 0.0 1.0 223 223
d 0.12488 0 1 cbr 210 ------- 0 0.0 1.0 223 223
+ 0.12544 0 1 cbr 210 ------- 0 0.0 1.0 224 224
d 0.12544 0 1 cbr 210 ------- 0 0.0 1.0 224 224
r 0.12592 0 1 cbr 210 ------- 0 0.0 1.0 68 68
- 0.126 0 1 cbr 210 ------- 0 0.0 1.0 79 79
+ 0.126 0 1 cbr 210 ------- 0 0.0 1.0 225 225
+ 0.12656 0 1 cbr 210 ------- 0 0.0 1.0 226 226
d 0.12656 0 1 cbr 210 ------- 0 0.0 1.0 226 226
+ 0.12712 0 1 cbr 210 ------- 0 0.0 1.0 227 227
d 0.12712 0 1 cbr 210 ------- 0 0.0 1.0 227 227
r 0.1276 0 1 cbr 210 ------- 0 0.0 1.0 69 69
- 0.12768 0 1 cbr 210 ------- 0 0.0 1.0 82 82
+ 0.12768 0 1 cbr 210 ------- 0 0.0 1.0 228 228
+ 0.12824 0 1 cbr 210 ------- 0 0.0 1.0 229 229
d 0.12824 0 1 cbr 210 ------- 0 0.0 1.0 229 229
+ 0.1288 0 1 cbr 210 ------- 0 0.0 1.0 230 230
d 0.1288 0 1 cbr 210 ------- 0 0.0 1.0 230 230
r 0.12928 0 1 cbr 210 ------- 0 0.0 1.0 70 70
- 0.12936 0 1 cbr 210 ------- 0 0.0 1.0 85 85
+ 0.12936 0 1 cbr 210 ------- 0 0.0 1.0 231 231
+ 0.12992 0 1 cbr 210 ------- 0 0.0 1.0 232 232
d 0.12992 0 1 cbr 210 ------- 0 0.0 1.0 232 232
+ 0.13048 0 1 cbr 210 ------- 0 0.0 1.0 233 233
d 0.13048 0 1 cbr 210 ------- 0 0.0 1.0 233 233
r 0.13096 0 1 cbr 210 ------- 0 0.0 1.0 71 71
- 0.13104 0 1 cbr 210 ------- 0 0.0 1.0 88 88
+ 0.13104 0 1 cbr 210 ------- 0 0.0 1.0 234 234
+ 0.1316 0 1 cbr 210 ------- 0 0.0 1.0 235 235
d 0.1316 0 1 cbr 210 ------- 0 0.0 1.0 235 235
+ 0.13216 0 1 cbr 210 ------- 0 0.0 1.0 236 236
d 0.13216 0 1 cbr 210 ------- 0 0.0 1.0 236 236
r 0.13264 0 1 cbr 210 ------- 0 0.0 1.0 72 72
- 0.13272 0 1 cbr 210 ------- 0 0.0 1.0 91 91
+ 0.13272 0 1 cbr 210 ------- 0 0.0 1.0 237 237
+ 0.13328 0 1 cbr 210 ------- 0 0.0 1.0 238 238
d 0.13328 0 1 cbr 210 ------- 0 0.0 1.0 238 238
+ 0.13384 0 1 cbr 210 ------- 0 0.0 1.0 239 239
d 0.13384 0 1 cbr 210 ------- 0 0.0 1.0 239 239
r 0.13432 0 1 cbr 210 ------- 0 0.0 1.0 73 73
- 0.1344 0 1 cbr 210 ------- 0 0.0 1.0 94 94
+ 0.1344 0 1 cbr 210 ------- 0 0.0 1.0 240 240
+ 0.13496 0 1 cbr 210 ------- 0 0.0 1.0 241 241
d 0.13496 0 1 cbr 210 ------- 0 0.0 1.0 241 241
+ 0.13552 0 1 cbr 210 ------- 0 0.0 1.0 242 242
d 0.13552 0 1 cbr 210 ------- 0 0.0 1.0 242 242
r 0.136 0 1 cbr 210 ------- 0 0.0 1.0 76 76
- 0.13608 0 1 cbr 210 ------- 0 0.0 1.0 97 97
+ 0.13608 0 1 cbr 210 ------- 0 0.0 1.0 243 243
+ 0.13664 0 1 cbr 210 ------- 0 0.0 1.0 244 244
d 0.13664 0 1 cbr 210 ------- 0 0.0 1.0 244 244
+ 0.1372 0 1 cbr 210 ------- 0 0.0 1.0 245 245
d 0.1372 0 1 cbr 210 ------- 0 0.0 1.0 245 245
r 0.13768 0 1 cbr 210 ------- 0 0.0 1.0 79 79
- 0.13776 0 1 cbr 210 ------- 0 0.0 1.0 100 100
+ 0.13776 0 1 cbr 210 ------- 0 0.0 1.0 246 246
+ 0.13832 0 1 cbr 210 ------- 0 0.0 1.0 247 247
d 0.13832 0 1 cbr 210 ------- 0 0.0 1.0 247 247
+ 0.13888 0 1 cbr 210 ------- 0 0.0 1.0 248 248
d 0.13888 0 1 cbr 210 ------- 0 0.0 1.0 248 248
r 0.13936 0 1 cbr 210 ------- 0 0.0 1.0 82 82
- 0.13944 0 1 cbr 210 ------- 0 0.0 1.0 103 103
+ 0.13944 0 1 cbr 210 ------- 0 0.0 1.0 249 249
+ 0.14 0 1 cbr 210 ------- 0 0.0 1.0 250 250
d 0.14 0 1 cbr 210 ------- 0 0.0 1.0 250 250
+ 0.14056 0 1 cbr 210 ------- 0 0.0 1.0 251 251
d 0.14056 0 1 cbr 210 ------- 0 0.0 1.0 251 251
r 0.14104 0 1 cbr 210 ------- 0 0.0 1.0 85 85
- 0.14112 0 1 cbr 210 ------- 0 0.0 1.0 106 106
+ 0.14112 0 1 cbr 210 ------- 0 0.0 1.0 252 252
+ 0.14168 0 1 cbr 210 ------- 0 0.0 1.0 253 253
d 0.14168 0 1 cbr 210 ------- 0 0.0 1.0 253 253
+ 0.14224 0 1 cbr 210 ------- 0 0.0 1.0 254 254
d 0.14224 0 1 cbr 210 ------- 0 0.0 1.0 254 254
r 0.14272 0 1 cbr 210 ------- 0 0.0 1.0 88 88
- 0.1428 0 1 cbr 210 ------- 0 0.0 1.0 109 109
+ 0.1428 0 1 cbr 210 ------- 0 0.0 1.0 255 255
+ 0.14336 0 1 cbr 210 ------- 0 0.0 1.0 256 256
d 0.14336 0 1 cbr 210 ------- 0 0.0 1.0 256 256
+ 0.14392 0 1 cbr 210 ------- 0 0.0 1.0 257 257
d 0.14392 0 1 cbr 210 ------- 0 0.0 1.0 257 257
r 0.1444 0 1 cbr 210 ------- 0 0.0 1.0 91 91
- 0.14448 0 1 cbr 210 ------- 0 0.0 1.0 112 112
+ 0.14448 0 1 cbr 210 ------- 0 0.0 1.0 258 258
+ 0.14504 0 1 cbr 210 ------- 0 0.0 1.0 259 259
d 0.14504 0 1 cbr 210 ------- 0 0.0 1.0 259 259
+ 0.1456 0 1 cbr 210 ------- 0 0.0 1.0 260 260
d 0.1456 0 1 cbr 210 ------- 0 0.0 1.0 260 260
r 0.14608 0 1 cbr 210 ------- 0 0.0 1.0 94 94
- 0.14616 0 1 cbr 210 ------- 0 0.0 1.0 115 115
+ 0.14616 0 1 cbr 210 ------- 0 0.0 1.0 261 261
+ 0.14672 0 1 cbr 210 ------- 0 0.0 1.0 262 262
d 0.14672 0 1 cbr 210 ------- 0 0.0 1.0 262 262
+ 0.14728 0 1 cbr 210 ------- 0 0.0 1.0 263 263
d 0.14728 0 1 cbr 210 ------- 0 0.0 1.0 263 263
r 0.14776 0 1 cbr 210 ------- 0 0.0 1.0 97 97
- 0.14784 0 1 cbr 210 ------- 0 0.0 1.0 118 118
+ 0.14784 0 1 cbr 210 ------- 0 0.0 1.0 264 264
+ 0.1484 0 1 cbr 210 ------- 0 0.0 1.0 265 265
d 0.1484 0 1 cbr 210 ------- 0 0.0 1.0 265 265
+ 0.14896 0 1 cbr 210 ------- 0 0.0 1.0 266 266
d 0.14896 0 1 cbr 210 ------- 0 0.0 1.0 266 266
r 0.14944 0 1 cbr 210 ------- 0 0.0 1.0 100 100
- 0.14952 0 1 cbr 210 ------- 0 0.0 1.0 121 121
+ 0.14952 0 1 cbr 210 ------- 0 0.0 1.0 267 267
+ 0.15008 0 1 cbr 210 ------- 0 0.0 1.0 268 268
d 0.15008 0 1 cbr 210 ------- 0 0.0 1.0 268 268
+ 0.15064 0 1 cbr 210 ------- 0 0.0 1.0 269 269
d 0.15064 0 1 cbr 210 ------- 0 0.0 1.0 269 269
r 0.15112 0 1 cbr 210 ------- 0 0.0 1.0 103 103
- 0.1512 0 1 cbr 210 ------- 0 0.0 1.0 124 124
+ 0.1512 0 1 cbr 210 ------- 0 0.0 1.0 270 270
+ 0.15176 0 1 cbr 210 ------- 0 0.0 1.0 271 271
d 0.15176 0 1 cbr 210 ------- 0 0.0 1.0 271 271
+ 0.15232 0 1 cbr 210 ------- 0 0.0 1.0 272 272
d 0.15232 0 1 cbr 210 ------- 0 0.0 1.0 272 272
r 0.1528 0 1 cbr 210 ------- 0 0.0 1.0 106 106
- 0.15288 0 1 cbr 210 ------- 0 0.0 1.0 127 127
+ 0.15288 0 1 cbr 210 ------- 0 0.0 1.0 273 273
+ 0.15344 0 1 cbr 210 ------- 0 0.0 1.0 274 274
d 0.15344 0 1 cbr 210 ------- 0 0.0 1.0 274 274
+ 0.154 0 1 cbr 210 ------- 0 0.0 1.0 275 275
d 0.154 0 1 cbr 210 ------- 0 0.0 1.0 275 275
r 0.15448 0 1 cbr 210 ------- 0 0.0 1.0 109 109
- 0.15456 0 1 cbr 210 ------- 0 0.0 1.0 130 130
+ 0.15456 0 1 cbr 210 ------- 0 0.0 1.0 276 276
+ 0.15512 0 1 cbr 210 ------- 0 0.0 1.0 277 277
d 0.15512 0 1 cbr 210 ------- 0 0.0 1.0 277 277
+ 0.15568 0 1 cbr 210 ------- 0 0.0 1.0 278 278
d 0.15568 0 1 cbr 210 ------- 0 0.0 1.0 278 278
r 0.15616 0 1 cbr 210 ------- 0 0.0 1.0 112 112
- 0.15624 0 1 cbr 210 ------- 0 0.0 1.0 132 132
+ 0.15624 0 1 cbr 210 ------- 0 0.0 1.0 279 279
+ 0.1568 0 1 cbr 210 ------- 0 0.0 1.0 280 280
d 0.1568 0 1 cbr 210 ------- 0 0.0 1.0 280 280
+ 0.15736 0 1 cbr 210 ------- 0 0.0 1.0 281 281
d 0.15736 0 1 cbr 210 ------- 0 0.0 1.0 281 281
r 0.15784 0 1 cbr 210 ------- 0 0.0 1.0 115 115
- 0.15792 0 1 cbr 210 ------- 0 0.0 1.0 135 135
+ 0.15792 0 1 cbr 210 ------- 0 0.0 1.0 282 282
+ 0.15848 0 1 cbr 210 ------- 0 0.0 1.0 283 283
d 0.15848 0 1 cbr 210 ------- 0 0.0 1.0 283 283
+ 0.15904 0 1 cbr 210 ------- 0 0.0 1.0 284 284
d 0.15904 0 1 cbr 210 ------- 0 0.0 1.0 284 284
r 0.15952 0 1 cbr 210 ------- 0 0.0 1.0 118 118
- 0.1596 0 1 cbr 210 ------- 0 0.0 1.0 138 138
+ 0.1596 0 1 cbr 210 ------- 0 0.0 1.0 285 285
+ 0.16016 0 1 cbr 210 ------- 0 0.0 1.0 286 286
d 0.16016 0 1 cbr 210 ------- 0 0.0 1.0 286 286
+ 0.16072 0 1 cbr 210 ------- 0 0.0 1.0 287 287
d 0.16072 0 1 cbr 210 ------- 0 0.0 1.0 287 287
r 0.1612 0 1 cbr 210 ------- 0 0.0 1.0 121 121
- 0.16128 0 1 cbr 210 ------- 0 0.0 1.0 141 141
+ 0.16128 0 1 cbr 210 ------- 0 0.0 1.0 288 288
+ 0.16184 0 1 cbr 210 ------- 0 0.0 1.0 289 289
d 0.16184 0 1 cbr 210 ------- 0 0.0 1.0 289 289
+ 0.1624 0 1 cbr 210 ------- 0 0.0 1.0 290 290
d 0.1624 0 1 cbr 210 ------- 0 0.0 1.0 290 290
r 0.16288 0 1 cbr 210 ------- 0 0.0 1.0 124 124
- 0.16296 0 1 cbr 210 ------- 0 0.0 1.0 144 144
+ 0.16296 0 1 cbr 210 ------- 0 0.0 1.0 291 291
+ 0.16352 0 1 cbr 210 ------- 0 0.0 1.0 292 292
d 0.16352 0 1 cbr 210 ------- 0 0.0 1.0 292 292
+ 0.16408 0 1 cbr 210 ------- 0 0.0 1.0 293 293
d 0.16408 0 1 cbr 210 ------- 0 0.0 1.0 293 293
r 0.16456 0 1 cbr 210 ------- 0 0.0 1.0 127 127
- 0.16464 0 1 cbr 210 ------- 0 0.0 1.0 147 147
+ 0.16464 0 1 cbr 210 ------- 0 0.0 1.0 294 294
+ 0.1652 0 1 cbr 210 ------- 0 0.0 1.0 295 295
d 0.1652 0 1 cbr 210 ------- 0 0.0 1.0 295 295
+ 0.16576 0 1 cbr 210 ------- 0 0.0 1.0 296 296
d 0.16576 0 1 cbr 210 ------- 0 0.0 1.0 296 296
r 0.16624 0 1 cbr 210 ------- 0 0.0 1.0 130 130
- 0.16632 0 1 cbr 210 ------- 0 0.0 1.0 150 150
+ 0.16632 0 1 cbr 210 ------- 0 0.0 1.0 297 297
+ 0.16688 0 1 cbr 210 ------- 0 0.0 1.0 298 298