+ 0 0 1 cbr 210 ------- 0 0.0 1.0 0 0
- 0 0 1 cbr 210 ------- 0 0.0 1.0 0 0
r 0.01168 0 1 cbr 210 ------- 0 0.0 1.0 0 0
+ 0.0168 0 1 cbr 210 ------- 0 0.0 1.0 1 1
- 0.0168 0 1 cbr 210 ------- 0 0.0 1.0 1 1
r 0.02848 0 1 cbr 210 ------- 0 0.0 1.0 1 1
+ 0.0336 0 1 cbr 210 ------- 0 0.0 1.0 2 2
- 0.0336 0 1 cbr 210 ------- 0 0.0 1.0 2 2
r 0.04528 0 1 cbr 210 ------- 0 0.0 1.0 2 2
+ 0.0504 0 1 cbr 210 ------- 0 0.0 1.0 3 3
- 0.0504 0 1 cbr 210 ------- 0 0.0 1.0 3 3
r 0.06208 0 1 cbr 210 ------- 0 0.0 1.0 3 3
+ 0.0672 0 1 cbr 210 ------- 0 0.0 1.0 4 4
- 0.0672 0 1 cbr 210 ------- 0 0.0 1.0 4 4
r 0.07888 0 1 cbr 210 ------- 0 0.0 1.0 4 4
+ 0.084 0 1 cbr 210 ------- 0 0.0 1.0 5 5
- 0.084 0 1 cbr 210 ------- 0 0.0 1.0 5 5
r 0.09568 0 1 cbr 210 ------- 0 0.0 1.0 5 5
+ 0.1008 0 1 cbr 210 ------- 0 0.0 1.0 6 6
- 0.1008 0 1 cbr 210 ------- 0 0.0 1.0 6 6
r 0.11248 0 1 cbr 210 ------- 0 0.0 1.0 6 6
+ 0.1176 0 1 cbr 210 ------- 0 0.0 1.0 7 7
- 0.1176 0 1 cbr 210 ------- 0 0.0 1.0 7 7
r 0.12928 0 1 cbr 210 ------- 0 0.0 1.0 7 7
+ 0.1344 0 1 cbr 210 ------- 0 0.0 1.0 8 8
- 0.1344 0 1 cbr 210 ------- 0 0.0 1.0 8 8
r 0.14608 0 1 cbr 210 ------- 0 0.0 1.0 8 8
+ 0.1512 0 1 cbr 210 ------- 0 0.0 1.0 9 9
- 0.1512 0 1 cbr 210 ------- 0 0.0 1.0 9 9
r 0.16288 0 1 cbr 210 ------- 0 0.0 1.0 9 9
+ 0.168 0 1 cbr 210 ------- 0 0.0 1.0 10 10
- 0.168 0 1 cbr 210 ------- 0 0.0 1.0 10 10
r 0.17968 0 1 cbr 210 ------- 0 0.0 1.0 10 10
+ 0.1848 0 1 cbr 210 ------- 0 0.0 1.0 11 11
- 0.1848 0 1 cbr 210 ------- 0 0.0 1.0 11 11
r 0.19648 0 1 cbr 210 ------- 0 0.0 1.0 11 11
+ 0.2016 0 1 cbr 210 ------- 0 0.0 1.0 12 12
- 0.2016 0 1 cbr 210 ------- 0 0.0 1.0 12 12
r 0.21328 0 1 cbr 210 ------- 0 0.0 1.0 12 12
+ 0.2184 0 1 cbr 210 ------- 0 0.0 1.0 13 13
- 0.2184 0 1 cbr 210 ------- 0 0.0 1.0 13 13
r 0.23008 0 1 cbr 210 ------- 0 0.0 1.0 13 13
+ 0.2352 0 1 cbr 210 ------- 0 0.0 1.0 14 14
- 0.2352 0 1 cbr 210 ------- 0 0.0 1.0 14 14
r 0.24688 0 1 cbr 210 ------- 0 0.0 1.0 14 14
+ 0.252 0 1 cbr 210 ------- 0 0.0 1.0 15 15
- 0.252 0 1 cbr 210 ------- 0 0.0 1.0 15 15
r 0.26368 0 1 cbr 210 ------- 0 0.0 1.0 15 15
+ 0.2688 0 1 cbr 210 ------- 0 0.0 1.0 16 16
- 0.2688 0 1 cbr 210 ------- 0 0.0 1.0 16 16
r 0.28048 0 1 cbr 210 ------- 0 0.0 1.0 16 16
+ 0.2856 0 1 cbr 210 ------- 0 0.0 1.0 17 17
- 0.2856 0 1 cbr 210 ------- 0 0.0 1.0 17 17
r 0.29728 0 1 cbr 210 ------- 0 0.0 1.0 17 17
+ 0.3024 0 1 cbr 210 ------- 0 0.0 1.0 18 18
- 0.3024 0 1 cbr 210 ------- 0 0.0 1.0 18 18
r 0.31408 0 1 cbr 210 ------- 0 0.0 1.0 18 18
+ 0.3192 0 1 cbr 210 ------- 0 0.0 1.0 19 19
- 0.3192 0 1 cbr 210 ------- 0 0.0 1.0 19 19
r 0.33088 0 1 cbr 210 ------- 0 0.0 1.0 19 19
+ 0.336 0 1 cbr 210 ------- 0 0.0 1.0 20 20
- 0.336 0 1 cbr 210 ------- 0 0.0 1.0 20 20
r 0.34768 0 1 cbr 210 ------- 0 0.0 1.0 20 20
+ 0.3528 0 1 cbr 210 ------- 0 0.0 1.0 21 21
- 0.3528 0 1 cbr 210 ------- 0 0.0 1.0 21 21
r 0.36448 0 1 cbr 210 ------- 0 0.0 1.0 21 21
+ 0.3696 0 1 cbr 210 ------- 0 0.0 1.0 22 22
- 0.3696 0 1 cbr 210 ------- 0 0.0 1.0 22 22
r 0.38128 0 1 cbr 210 ------- 0 0.0 1.0 22 22
+ 0.3864 0 1 cbr 210 ------- 0 0.0 1.0 23 23
- 0.3864 0 1 cbr 210 ------- 0 0.0 1.0 23 23
r 0.39808 0 1 cbr 210 ------- 0 0.0 1.0 23 23
+ 0.4032 0 1 cbr 210 ------- 0 0.0 1.0 24 24
- 0.4032 0 1 cbr 210 ------- 0 0.0 1.0 24 24
r 0.41488 0 1 cbr 210 ------- 0 0.0 1.0 24 24
+ 0.42 0 1 cbr 210 ------- 0 0.0 1.0 25 25
- 0.42 0 1 cbr 210 ------- 0 0.0 1.0 25 25
r 0.43168 0 1 cbr 210 ------- 0 0.0 1.0 25 25
+ 0.4368 0 1 cbr 210 ------- 0 0.0 1.0 26 26
- 0.4368 0 1 cbr 210 ------- 0 0.0 1.0 26 26
r 0.44848 0 1 cbr 210 ------- 0 0.0 1.0 26 26
+ 0.4536 0 1 cbr 210 ------- 0 0.0 1.0 27 27
- 0.4536 0 1 cbr 210 ------- 0 0.0 1.0 27 27
r 0.46528 0 1 cbr 210 ------- 0 0.0 1.0 27 27
+ 0.4704 0 1 cbr 210 ------- 0 0.0 1.0 28 28
- 0.4704 0 1 cbr 210 ------- 0 0.0 1.0 28 28
r 0.48208 0 1 cbr 210 ------- 0 0.0 1.0 28 28
+ 0.4872 0 1 cbr 210 ------- 0 0.0 1.0 29 29
- 0.4872 0 1 cbr 210 ------- 0 0.0 1.0 29 29
r 0.49888 0 1 cbr 210 ------- 0 0.0 1.0 29 29
+ 0.504 0 1 cbr 210 ------- 0 0.0 1.0 30 30
- 0.504 0 1 cbr 210 ------- 0 0.0 1.0 30 30
r 0.51568 0 1 cbr 210 ------- 0 0.0 1.0 30 30
+ 0.5208 0 1 cbr 210 ------- 0 0.0 1.0 31 31
- 0.5208 0 1 cbr 210 ------- 0 0.0 1.0 31 31
r 0.53248 0 1 cbr 210 ------- 0 0.0 1.0 31 31
+ 0.5376 0 1 cbr 210 ------- 0 0.0 1.0 32 32
- 0.5376 0 1 cbr 210 ------- 0 0.0 1.0 32 32
r 0.54928 0 1 cbr 210 ------- 0 0.0 1.0 32 32
+ 0.5544 0 1 cbr 210 ------- 0 0.0 1.0 33 33
- 0.5544 0 1 cbr 210 ------- 0 0.0 1.0 33 33
r 0.56608 0 1 cbr 210 ------- 0 0.0 1.0 33 33
+ 0.5712 0 1 cbr 210 ------- 0 0.0 1.0 34 34
- 0.5712 0 1 cbr 210 ------- 0 0.0 1.0 34 34
r 0.58288 0 1 cbr 210 ------- 0 0.0 1.0 34 34
+ 0.588 0 1 cbr 210 ------- 0 0.0 1.0 35 35
- 0.588 0 1 cbr 210 ------- 0 0.0 1.0 35 35
r 0.59968 0 1 cbr 210 ------- 0 0.0 1.0 35 35
+ 0.6048 0 1 cbr 210 ------- 0 0.0 1.0 36 36
- 0.6048 0 1 cbr 210 ------- 0 0.0 1.0 36 36
r 0.61648 0 1 cbr 210 ------- 0 0.0 1.0 36 36
+ 0.6216 0 1 cbr 210 ------- 0 0.0 1.0 37 37
- 0.6216 0 1 cbr 210 ------- 0 0.0 1.0 37 37
r 0.63328 0 1 cbr 210 ------- 0 0.0 1.0 37 37
+ 0.6384 0 1 cbr 210 ------- 0 0.0 1.0 38 38
- 0.6384 0 1 cbr 210 ------- 0 0.0 1.0 38 38
r 0.65008 0 1 cbr 210 ------- 0 0.0 1.0 38 38
+ 0.6552 0 1 cbr 210 ------- 0 0.0 1.0 39 39
- 0.6552 0 1 cbr 210 ------- 0 0.0 1.0 39 39
r 0.66688 0 1 cbr 210 ------- 0 0.0 1.0 39 39
+ 0.672 0 1 cbr 210 ------- 0 0.0 1.0 40 40
- 0.672 0 1 cbr 210 ------- 0 0.0 1.0 40 40
r 0.68368 0 1 cbr 210 ------- 0 0.0 1.0 40 40
+ 0.6888 0 1 cbr 210 ------- 0 0.0 1.0 41 41
- 0.6888 0 1 cbr 210 ------- 0 0.0 1.0 41 41
r 0.70048 0 1 cbr 210 ------- 0 0.0 1.0 41 41
+ 0.7056 0 1 cbr 210 ------- 0 0.0 1.0 42 42
- 0.7056 0 1 cbr 210 ------- 0 0.0 1.0 42 42
r 0.71728 0 1 cbr 210 ------- 0 0.0 1.0 42 42
+ 0.7224 0 1 cbr 210 ------- 0 0.0 1.0 43 43
- 0.7224 0 1 cbr 210 ------- 0 0.0 1.0 43 43
r 0.73408 0 1 cbr 210 ------- 0 0.0 1.0 43 43
+ 0.7392 0 1 cbr 210 ------- 0 0.0 1.0 44 44
- 0.7392 0 1 cbr 210 ------- 0 0.0 1.0 44 44
r 0.75088 0 1 cbr 210 ------- 0 0.0 1.0 44 44
+ 0.756 0 1 cbr 210 ------- 0 0.0 1.0 45 45
- 0.756 0 1 cbr 210 ------- 0 0.0 1.0 45 45
r 0.76768 0 1 cbr 210 ------- 0 0.0 1.0 45 45
+ 0.7728 0 1 cbr 210 ------- 0 0.0 1.0 46 46
- 0.7728 0 1 cbr 210 ------- 0 0.0 1.0 46 46
r 0.78448 0 1 cbr 210 ------- 0 0.0 1.0 46 46
+ 0.7896 0 1 cbr 210 ------- 0 0.0 1.0 47 47
- 0.7896 0 1 cbr 210 ------- 0 0.0 1.0 47 47
r 0.80128 0 1 cbr 210 ------- 0 0.0 1.0 47 47
+ 0.8064 0 1 cbr 210 ------- 0 0.0 1.0 48 48
- 0.8064 0 1 cbr 210 ------- 0 0.0 1.0 48 48
r 0.81808 0 1 cbr 210 ------- 0 0.0 1.0 48 48
+ 0.8232 0 1 cbr 210 ------- 0 0.0 1.0 49 49
- 0.8232 0 1 cbr 210 ------- 0 0.0 1.0 49 49
r 0.83488 0 1 cbr 210 ------- 0 0.0 1.0 49 49
+ 0.84 0 1 cbr 210 ------- 0 0.0 1.0 50 50
- 0.84 0 1 cbr 210 ------- 0 0.0 1.0 50 50
r 0.85168 0 1 cbr 210 ------- 0 0.0 1.0 50 50
+ 0.8568 0 1 cbr 210 ------- 0 0.0 1.0 51 51
- 0.8568 0 1 cbr 210 ------- 0 0.0 1.0 51 51
r 0.86848 0 1 cbr 210 ------- 0 0.0 1.0 51 51
+ 0.8736 0 1 cbr 210 ------- 0 0.0 1.0 52 52
- 0.8736 0 1 cbr 210 ------- 0 0.0 1.0 52 52
r 0.88528 0 1 cbr 210 ------- 0 0.0 1.0 52 52
+ 0.8904 0 1 cbr 210 ------- 0 0.0 1.0 53 53
- 0.8904 0 1 cbr 210 ------- 0 0.0 1.0 53 53
r 0.90208 0 1 cbr 210 ------- 0 0.0 1.0 53 53
+ 0.9072 0 1 cbr 210 ------- 0 0.0 1.0 54 54
- 0.9072 0 1 cbr 210 ------- 0 0.0 1.0 54 54
r 0.91888 0 1 cbr 210 ------- 0 0.0 1.0 54 54
+ 0.924 0 1 cbr 210 ------- 0 0.0 1.0 55 55
- 0.924 0 1 cbr 210 ------- 0 0.0 1.0 55 55
r 0.93568 0 1 cbr 210 ------- 0 0.0 1.0 55 55
+ 0.9408 0 1 cbr 210 ------- 0 0.0 1.0 56 56
- 0.9408 0 1 cbr 210 ------- 0 0.0 1.0 56 56
r 0.95248 0 1 cbr 210 ------- 0 0.0 1.0 56 56
+ 0.9576 0 1 cbr 210 ------- 0 0.0 1.0 57 57
- 0.9576 0 1 cbr 210 ------- 0 0.0 1.0 57 57
r 0.96928 0 1 cbr 210 ------- 0 0.0 1.0 57 57
+ 0.9744 0 1 cbr 210 ------- 0 0.0 1.0 58 58
- 0.9744 0 1 cbr 210 ------- 0 0.0 1.0 58 58
r 0.98608 0 1 cbr 210 ------- 0 0.0 1.0 58 58
+ 0.9912 0 1 cbr 210 ------- 0 0.0 1.0 59 59
- 0.9912 0 1 cbr 210 ------- 0 0.0 1.0 59 59
r 1.00288 0 1 cbr 210 ------- 0 0.0 1.0 59 59
+ 1.008 0 1 cbr 210 ------- 0 0.0 1.0 60 60
- 1.008 0 1 cbr 210 ------- 0 0.0 1.0 60 60
r 1.01968 0 1 cbr 210 ------- 0 0.0 1.0 60 60
+ 1.0248 0 1 cbr 210 ------- 0 0.0 1.0 61 61
- 1.0248 0 1 cbr 210 ------- 0 0.0 1.0 61 61
r 1.03648 0 1 cbr 210 ------- 0 0.0 1.0 61 61
+ 1.0416 0 1 cbr 210 ------- 0 0.0 1.0 62 62
- 1.0416 0 1 cbr 210 ------- 0 0.0 1.0 62 62
r 1.05328 0 1 cbr 210 ------- 0 0.0 1.0 62 62
+ 1.0584 0 1 cbr 210 ------- 0 0.0 1.0 63 63
- 1.0584 0 1 cbr 210 ------- 0 0.0 1.0 63 63
r 1.07008 0 1 cbr 210 ------- 0 0.0 1.0 63 63
+ 1.0752 0 1 cbr 210 ------- 0 0.0 1.0 64 64
- 1.0752 0 1 cbr 210 ------- 0 0.0 1.0 64 64
r 1.08688 0 1 cbr 210 ------- 0 0.0 1.0 64 64
+ 1.092 0 1 cbr 210 ------- 0 0.0 1.0 65 65
- 1.092 0 1 cbr 210 ------- 0 0.0 1.0 65 65
r 1.10368 0 1 cbr 210 ------- 0 0.0 1.0 65 65
+ 1.1088 0 1 cbr 210 ------- 0 0.0 1.0 66 66
- 1.1088 0 1 cbr 210 ------- 0 0.0 1.0 66 66
r 1.12048 0 1 cbr 210 ------- 0 0.0 1.0 66 66
+ 1.1256 0 1 cbr 210 ------- 0 0.0 1.0 67 67
- 1.1256 0 1 cbr 210 ------- 0 0.0 1.0 67 67
r 1.13728 0 1 cbr 210 ------- 0 0.0 1.0 67 67
+ 1.1424 0 1 cbr 210 ------- 0 0.0 1.0 68 68
- 1.1424 0 1 cbr 210 ------- 0 0.0 1.0 68 68
r 1.15408 0 1 cbr 210 ------- 0 0.0 1.0 68 68
+ 1.1592 0 1 cbr 210 ------- 0 0.0 1.0 69 69
- 1.1592 0 1 cbr 210 ------- 0 0.0 1.0 69 69
r 1.17088 0 1 cbr 210 ------- 0 0.0 1.0 69 69
+ 1.176 0 1 cbr 210 ------- 0 0.0 1.0 70 70
- 1.176 0 1 cbr 210 ------- 0 0.0 1.0 70 70
r 1.18768 0 1 cbr 210 ------- 0 0.0 1.0 70 70
+ 1.1928 0 1 cbr 210 ------- 0 0.0 1.0 71 71
- 1.1928 0 1 cbr 210 ------- 0 0.0 1.0 71 71
r 1.20448 0 1 cbr 210 ------- 0 0.0 1.0 71 71
+ 1.2096 0 1 cbr 210 ------- 0 0.0 1.0 72 72
- 1.2096 0 1 cbr 210 ------- 0 0.0 1.0 72 72
r 1.22128 0 1 cbr 210 ------- 0 0.0 1.0 72 72
+ 1.2264 0 1 cbr 210 ------- 0 0.0 1.0 73 73
- 1.2264 0 1 cbr 210 ------- 0 0.0 1.0 73 73
r 1.23808 0 1 cbr 210 ------- 0 0.0 1.0 73 73
+ 1.2432 0 1 cbr 210 ------- 0 0.0 1.0 74 74
- 1.2432 0 1 cbr 210 ------- 0 0.0 1.0 74 74
r 1.25488 0 1 cbr 210 ------- 0 0.0 1.0 74 74
+ 1.26 0 1 cbr 210 ------- 0 0.0 1.0 75 75
- 1.26 0 1 cbr 210 ------- 0 0.0 1.0 75 75
r 1.27168 0 1 cbr 210 ------- 0 0.0 1.0 75 75
+ 1.2768 0 1 cbr 210 ------- 0 0.0 1.0 76 76
- 1.2768 0 1 cbr 210 ------- 0 0.0 1.0 76 76
r 1.28848 0 1 cbr 210 ------- 0 0.0 1.0 76 76
+ 1.2936 0 1 cbr 210 ------- 0 0.0 1.0 77 77
- 1.2936 0 1 cbr 210 ------- 0 0.0 1.0 77 77
r 1.30528 0 1 cbr 210 ------- 0 0.0 1.0 77 77
+ 1.3104 0 1 cbr 210 ------- 0 0.0 1.0 78 78
- 1.3104 0 1 cbr 210 ------- 0 0.0 1.0 78 78
r 1.32208 0 1 cbr 210 ------- 0 0.0 1.0 78 78
+ 1.3272 0 1 cbr 210 ------- 0 0.0 1.0 79 79
- 1.3272 0 1 cbr 210 ------- 0 0.0 1.0 79 79
r 1.33888 0 1 cbr 210 ------- 0 0.0 1.0 79 79
+ 1.344 0 1 cbr 210 ------- 0 0.0 1.0 80 80
- 1.344 0 1 cbr 210 ------- 0 0.0 1.0 80 80
r 1.35568 0 1 cbr 210 ------- 0 0.0 1.0 80 80
+ 1.3608 0 1 cbr 210 ------- 0 0.0 1.0 81 81
- 1.3608 0 1 cbr 210 ------- 0 0.0 1.0 81 81
r 1.37248 0 1 cbr 210 ------- 0 0.0 1.0 81 81
+ 1.3776 0 1 cbr 210 ------- 0 0.0 1.0 82 82
- 1.3776 0 1 cbr 210 ------- 0 0.0 1.0 82 82
r 1.38928 0 1 cbr 210 ------- 0 0.0 1.0 82 82
+ 1.3944 0 1 cbr 210 ------- 0 0.0 1.0 83 83
- 1.3944 0 1 cbr 210 ------- 0 0.0 1.0 83 83
r 1.40608 0 1 cbr 210 ------- 0 0.0 1.0 83 83
+ 1.4112 0 1 cbr 210 ------- 0 0.0 1.0 84 84
- 1.4112 0 1 cbr 210 ------- 0 0.0 1.0 84 84
r 1.42288 0 1 cbr 210 ------- 0 0.0 1.0 84 84
+ 1.428 0 1 cbr 210 ------- 0 0.0 1.0 85 85
- 1.428 0 1 cbr 210 ------- 0 0.0 1.0 85 85
r 1.43968 0 1 cbr 210 ------- 0 0.0 1.0 85 85
+ 1.4448 0 1 cbr 210 ------- 0 0.0 1.0 86 86
- 1.4448 0 1 cbr 210 ------- 0 0.0 1.0 86 86
r 1.45648 0 1 cbr 210 ------- 0 0.0 1.0 86 86
+ 1.4616 0 1 cbr 210 ------- 0 0.0 1.0 87 87
- 1.4616 0 1 cbr 210 ------- 0 0.0 1.0 87 87
r 1.47328 0 1 cbr 210 ------- 0 0.0 1.0 87 87
+ 1.4784 0 1 cbr 210 ------- 0 0.0 1.0 88 88
- 1.4784 0 1 cbr 210 ------- 0 0.0 1.0 88 88
r 1.49008 0 1 cbr 210 ------- 0 0.0 1.0 88 88
+ 1.4952 0 1 cbr 210 ------- 0 0.0 1.0 89 89
- 1.4952 0 1 cbr 210 ------- 0 0.0 1.0 89 89
r 1.50688 0 1 cbr 210 ------- 0 0.0 1.0 89 89
+ 1.512 0 1 cbr 210 ------- 0 0.0 1.0 90 90
- 1.512 0 1 cbr 210 ------- 0 0.0 1.0 90 90
r 1.52368 0 1 cbr 210 ------- 0 0.0 1.0 90 90
+ 1.5288 0 1 cbr 210 ------- 0 0.0 1.0 91 91
- 1.5288 0 1 cbr 210 ------- 0 0.0 1.0 91 91
r 1.54048 0 1 cbr 210 ------- 0 0.0 1.0 91 91
+ 1.5456 0 1 cbr 210 ------- 0 0.0 1.0 92 92
- 1.5456 0 1 cbr 210 ------- 0 0.0 1.0 92 92
r 1.55728 0 1 cbr 210 ------- 0 0.0 1.0 92 92
+ 1.5624 0 1 cbr 210 ------- 0 0.0 1.0 93 93
- 1.5624 0 1 cbr 210 ------- 0 0.0 1.0 93 93
r 1.57408 0 1 cbr 210 ------- 0 0.0 1.0 93 93
+ 1.5792 0 1 cbr 210 ------- 0 0.0 1.0 94 94
- 1.5792 0 1 cbr 210 ------- 0 0.0 1.0 94 94
r 1.59088 0 1 cbr 210 ------- 0 0.0 1.0 94 94
+ 1.596 0 1 cbr 210 ------- 0 0.0 1.0 95 95
- 1.596 0 1 cbr 210 ------- 0 0.0 1.0 95 95
r 1.60768 0 1 cbr 210 ------- 0 0.0 1.0 95 95
+ 1.6128 0 1 cbr 210 ------- 0 0.0 1.0 96 96
- 1.6128 0 1 cbr 210 ------- 0 0.0 1.0 96 96
r 1.62448 0 1 cbr 210 ------- 0 0.0 1.0 96 96
+ 1.6296 0 1 cbr 210 ------- 0 0.0 1.0 97 97
- 1.6296 0 1 cbr 210 ------- 0 0.0 1.0 97 97
r 1.64128 0 1 cbr 210 ------- 0 0.0 1.0 97 97
+ 1.6464 0 1 cbr 210 ------- 0 0.0 1.0 98 98
- 1.6464 0 1 cbr 210 ------- 0 0.0 1.0 98 98
r 1.65808 0 1 cbr 210 ------- 0 0.0 1.0 98 98
+ 1.6632 0 1 cbr 210 ------- 0 0.0 1.0 99 99
- 1.6632 0 1 cbr 210 ------- 0 0.0 1.0 99 99
r 1.67488 0 1 cbr 210 ------- 0 0.0 1.0 99 99
+ 1.68 0 1 cbr 210 ------- 0 0.0 1.0 100 100
- 1.68 0 1 cbr 210 ------- 0 0.0 1.0 100 100
r 1.69168 0 1 cbr 210 ------- 0 0.0 1.0 100 100
+ 1.6968 0 1 cbr 210 ------- 0 0.0 1.0 101 101
- 1.6968 0 1 cbr 210 ------- 0 0.0 1.0 101 101
r 1.70848 0 1 cbr 210 ------- 0 0.0 1.0 101 101
+ 1.7136 0 1 cbr 210 ------- 0 0.0 1.0 102 102
- 1.7136 0 1 cbr 210 ------- 0 0.0 1.0 102 102
r 1.72528 0 1 cbr 210 ------- 0 0.0 1.0 102 102
+ 1.7304 0 1 cbr 210 ------- 0 0.0 1.0 103 103
- 1.7304 0 1 cbr 210 ------- 0 0.0 1.0 103 103
r 1.74208 0 1 cbr 210 ------- 0 0.0 1.0 103 103
+ 1.7472 0 1 cbr 210 ------- 0 0.0 1.0 104 104
- 1.7472 0 1 cbr 210 ------- 0 0.0 1.0 104 104
r 1.75888 0 1 cbr 210 ------- 0 0.0 1.0 104 104
+ 1.764 0 1 cbr 210 ------- 0 0.0 1.0 105 105
- 1.764 0 1 cbr 210 ------- 0 0.0 1.0 105 105
r 1.77568 0 1 cbr 210 ------- 0 0.0 1.0 105 105
+ 1.7808 0 1 cbr 210 ------- 0 0.0 1.0 106 106
- 1.7808 0 1 cbr 210 ------- 0 0.0 1.0 106 106
r 1.79248 0 1 cbr 210 ------- 0 0.0 1.0 106 106
+ 1.7976 0 1 cbr 210 ------- 0 0.0 1.0 107 107
- 1.7976 0 1 cbr 210 ------- 0 0.0 1.0 107 107
r 1.80928 0 1 cbr 210 ------- 0 0.0 1.0 107 107
+ 1.8144 0 1 cbr 210 ------- 0 0.0 1.0 108 108
- 1.8144 0 1 cbr 210 ------- 0 0.0 1.0 108 108
r 1.82608 0 1 cbr 210 ------- 0 0.0 1.0 108 108
+ 1.8312 0 1 cbr 210 ------- 0 0.0 1.0 109 109
- 1.8312 0 1 cbr 210 ------- 0 0.0 1.0 109 109
r 1.84288 0 1 cbr 210 ------- 0 0.0 1.0 109 109
+ 1.848 0 1 cbr 210 ------- 0 0.0 1.0 110 110
- 1.848 0 1 cbr 210 ------- 0 0.0 1.0 110 110
r 1.85968 0 1 cbr 210 ------- 0 0.0 1.0 110 110
+ 1.8648 0 1 cbr 210 ------- 0 0.0 1.0 111 111
- 1.8648 0 1 cbr 210 ------- 0 0.0 1.0 111 111
r 1.87648 0 1 cbr 210 ------- 0 0.0 1.0 111 111
+ 1.8816 0 1 cbr 210 ------- 0 0.0 1.0 112 112
- 1.8816 0 1 cbr 210 ------- 0 0.0 1.0 112 112
r 1.89328 0 1 cbr 210 ------- 0 0.0 1.0 112 112
+ 1.8984 0 1 cbr 210 ------- 0 0.0 1.0 113 113
- 1.8984 0 1 cbr 210 ------- 0 0.0 1.0 113 113
r 1.91008 0 1 cbr 210 ------- 0 0.0 1.0 113 113
+ 1.9152 0 1 cbr 210 ------- 0 0.0 1.0 114 114
- 1.9152 0 1 cbr 210 ------- 0 0.0 1.0 114 114
r 1.92688 0 1 cbr 210 ------- 0 0.0 1.0 114 114
+ 1.932 0 1 cbr 210 ------- 0 0.0 1.0 115 115
- 1.932 0 1 cbr 210 ------- 0 0.0 1.0 115 115
r 1.94368 0 1 cbr 210 ------- 0 0.0 1.0 115 115
+ 1.9488 0 1 cbr 210 ------- 0 0.0 1.0 116 116
- 1.9488 0 1 cbr 210 ------- 0 0.0 1.0 116 116
r 1.96048 0 1 cbr 210 ------- 0 0.0 1.0 116 116
+ 1.9656 0 1 cbr 210 ------- 0 0.0 1.0 117 117
- 1.9656 0 1 cbr 210 ------- 0 0.0 1.0 117 117
r 1.97728 0 1 cbr 210 ------- 0 0.0 1.0 117 117
+ 1.9824 0 1 cbr 210 ------- 0 0.0 1.0 118 118
- 1.9824 0 1 cbr 210 ------- 0 0.0 1.0 118 118
r 1.99408 0 1 cbr 210 ------- 0 0.0 1.0 118 118
+ 1.9992 0 1 cbr 210 ------- 0 0.0 1.0 119 119
- 1.9992 0 1 cbr 210 ------- 0 0.0 1.0 119 119
r 2.01088 0 1 cbr 210 ------- 0 0.0 1.0 119 119
+ 2.016 0 1 cbr 210 ------- 0 0.0 1.0 120 120
- 2.016 0 1 cbr 210 ------- 0 0.0 1.0 120 120
r 2.02768 0 1 cbr 210 ------- 0 0.0 1.0 120 120
+ 2.0328 0 1 cbr 210 ------- 0 0.0 1.0 121 121
- 2.0328 0 1 cbr 210 ------- 0 0.0 1.0 121 121
r 2.04448 0 1 cbr 210 ------- 0 0.0 1.0 121 121
+ 2.0496 0 1 cbr 210 ------- 0 0.0 1.0 122 122
- 2.0496 0 1 cbr 210 ------- 0 0.0 1.0 122 122
r 2.06128 0 1 cbr 210 ------- 0 0.0 1.0 122 122
+ 2.0664 0 1 cbr 210 ------- 0 0.0 1.0 123 123
- 2.0664 0 1 cbr 210 ------- 0 0.0 1.0 123 123
r 2.07808 0 1 cbr 210 ------- 0 0.0 1.0 123 123
+ 2.0832 0 1 cbr 210 ------- 0 0.0 1.0 124 124
- 2.0832 0 1 cbr 210 ------- 0 0.0 1.0 124 124
r 2.09488 0 1 cbr 210 ------- 0 0.0 1.0 124 124
+ 2.1 0 1 cbr 210 ------- 0 0.0 1.0 125 125
- 2.1 0 1 cbr 210 ------- 0 0.0 1.0 125 125
r 2.11168 0 1 cbr 210 ------- 0 0.0 1.0 125 125
+ 2.1168 0 1 cbr 210 ------- 0 0.0 1.0 126 126
- 2.1168 0 1 cbr 210 ------- 0 0.0 1.0 126 126
r 2.12848 0 1 cbr 210 ------- 0 0.0 1.0 126 126
+ 2.1336 0 1 cbr 210 ------- 0 0.0 1.0 127 127
- 2.1336 0 1 cbr 210 ------- 0 0.0 1.0 127 127
r 2.14528 0 1 cbr 210 ------- 0 0.0 1.0 127 127
+ 2.1504 0 1 cbr 210 ------- 0 0.0 1.0 128 128
- 2.1504 0 1 cbr 210 ------- 0 0.0 1.0 128 128
r 2.16208 0 1 cbr 210 ------- 0 0.0 1.0 128 128
+ 2.1672 0 1 cbr 210 ------- 0 0.0 1.0 129 129
- 2.1672 0 1 cbr 210 ------- 0 0.0 1.0 129 129
r 2.17888 0 1 cbr 210 ------- 0 0.0 1.0 129 129
+ 2.184 0 1 cbr 210 ------- 0 0.0 1.0 130 130
- 2.184 0 1 cbr 210 ------- 0 0.0 1.0 130 130
r 2.19568 0 1 cbr 210 ------- 0 0.0 1.0 130 130
+ 2.2008 0 1 cbr 210 ------- 0 0.0 1.0 131 131
- 2.2008 0 1 cbr 210 ------- 0 0.0 1.0 131 131
r 2.21248 0 1 cbr 210 ------- 0 0.0 1.0 131 131
+ 2.2176 0 1 cbr 210 ------- 0 0.0 1.0 132 132
- 2.2176 0 1 cbr 210 ------- 0 0.0 1.0 132 132
r 2.22928 0 1 cbr 210 ------- 0 0.0 1.0 132 132
+ 2.2344 0 1 cbr 210 ------- 0 0.0 1.0 133 133
- 2.2344 0 1 cbr 210 ------- 0 0.0 1.0 133 133
r 2.24608 0 1 cbr 210 ------- 0 0.0 1.0 133 133
+ 2.2512 0 1 cbr 210 ------- 0 0.0 1.0 134 134
- 2.2512 0 1 cbr 210 ------- 0 0.0 1.0 134 134
r 2.26288 0 1 cbr 210 ------- 0 0.0 1.0 134 134
+ 2.268 0 1 cbr 210 ------- 0 0.0 1.0 135 135
- 2.268 0 1 cbr 210 ------- 0 0.0 1.0 135 135
r 2.27968 0 1 cbr 210 ------- 0 0.0 1.0 135 135
+ 2.2848 0 1 cbr 210 ------- 0 0.0 1.0 136 136
- 2.2848 0 1 cbr 210 ------- 0 0.0 1.0 136 136
r 2.29648 0 1 cbr 210 ------- 0 0.0 1.0 136 136
+ 2.3016 0 1 cbr 210 ------- 0 0.0 1.0 137 137
- 2.3016 0 1 cbr 210 ------- 0 0.0 1.0 137 137
r 2.31328 0 1 cbr 210 ------- 0 0.0 1.0 137 137
+ 2.3184 0 1 cbr 210 ------- 0 0.0 1.0 138 138
- 2.3184 0 1 cbr 210 ------- 0 0.0 1.0 138 138
r 2.33008 0 1 cbr 210 ------- 0 0.0 1.0 138 138
+ 2.3352 0 1 cbr 210 ------- 0 0.0 1.0 139 139
- 2.3352 0 1 cbr 210 ------- 0 0.0 1.0 139 139
r 2.34688 0 1 cbr 210 ------- 0 0.0 1.0 139 139
+ 2.352 0 1 cbr 210 ------- 0 0.0 1.0 140 140
- 2.352 0 1 cbr 210 ------- 0 0.0 1.0 140 140
r 2.36368 0 1 cbr 210 ------- 0 0.0 1.0 140 140
+ 2.3688 0 1 cbr 210 ------- 0 0.0 1.0 141 141
- 2.3688 0 1 cbr 210 ------- 0 0.0 1.0 141 141
r 2.38048 0 1 cbr 210 ------- 0 0.0 1.0 141 141
+ 2.3856 0 1 cbr 210 ------- 0 0.0 1.0 142 142
- 2.3856 0 1 cbr 210 ------- 0 0.0 1.0 142 142
r 2.39728 0 1 cbr 210 ------- 0 0.0 1.0 142 142
+ 2.4024 0 1 cbr 210 ------- 0 0.0 1.0 143 143
- 2.4024 0 1 cbr 210 ------- 0 0.0 1.0 143 143
r 2.41408 0 1 cbr 210 ------- 0 0.0 1.0 143 143
+ 2.4192 0 1 cbr 210 ------- 0 0.0 1.0 144 144
- 2.4192 0 1 cbr 210 ------- 0 0.0 1.0 144 144
r 2.43088 0 1 cbr 210 ------- 0 0.0 1.0 144 144
+ 2.436 0 1 cbr 210 ------- 0 0.0 1.0 145 145
- 2.436 0 1 cbr 210 ------- 0 0.0 1.0 145 145
r 2.44768 0 1 cbr 210 ------- 0 0.0 1.0 145 145
+ 2.4528 0 1 cbr 210 ------- 0 0.0 1.0 146 146
- 2.4528 0 1 cbr 210 ------- 0 0.0 1.0 146 146
r 2.46448 0 1 cbr 210 ------- 0 0.0 1.0 146 146
+ 2.4696 0 1 cbr 210 ------- 0 0.0 1.0 147 147
- 2.4696 0 1 cbr 210 ------- 0 0.0 1.0 147 147
r 2.48128 0 1 cbr 210 ------- 0 0.0 1.0 147 147
+ 2.4864 0 1 cbr 210 ------- 0 0.0 1.0 148 148
- 2.4864 0 1 cbr 210 ------- 0 0.0 1.0 148 148
r 2.49808 0 1 cbr 210 ------- 0 0.0 1.0 148 148
+ 2.5032 0 1 cbr 210 ------- 0 0.0 1.0 149 149
- 2.5032 0 1 cbr 210 ------- 0 0.0 1.0 149 149
r 2.51488 0 1 cbr 210 ------- 0 0.0 1.0 149 149
+ 2.52 0 1 cbr 210 ------- 0 0.0 1.0 150 150
- 2.52 0 1 cbr 210 ------- 0 0.0 1.0 150 150
r 2.53168 0 1 cbr 210 ------- 0 0.0 1.0 150 150
+ 2.5368 0 1 cbr 210 ------- 0 0.0 1.0 151 151
- 2.5368 0 1 cbr 210 ------- 0 0.0 1.0 151 151
r 2.54848 0 1 cbr 210 ------- 0 0.0 1.0 151 151
+ 2.5536 0 1 cbr 210 ------- 0 0.0 1.0 152 152
- 2.5536 0 1 cbr 210 ------- 0 0.0 1.0 152 152
r 2.56528 0 1 cbr 210 ------- 0 0.0 1.0 152 152
+ 2.5704 0 1 cbr 210 ------- 0 0.0 1.0 153 153
- 2.5704 0 1 cbr 210 ------- 0 0.0 1.0 153 153
r 2.58208 0 1 cbr 210 ------- 0 0.0 1.0 153 153
+ 2.5872 0 1 cbr 210 ------- 0 0.0 1.0 154 154
- 2.5872 0 1 cbr 210 ------- 0 0.0 1.0 154 154
r 2.59888 0 1 cbr 210 ------- 0 0.0 1.0 154 154
+ 2.604 0 1 cbr 210 ------- 0 0.0 1.0 155 155
- 2.604 0 1 cbr 210 ------- 0 0.0 1.0 155 155
r 2.61568 0 1 cbr 210 ------- 0 0.0 1.0 155 155
+ 2.6208 0 1 cbr 210 ------- 0 0.0 1.0 156 156
- 2.6208 0 1 cbr 210 ------- 0 0.0 1.0 156 156
r 2.63248 0 1 cbr 210 ------- 0 0.0 1.0 156 156
+ 2.6376 0 1 cbr 210 ------- 0 0.0 1.0 157 157
- 2.6376 0 1 cbr 210 ------- 0 0.0 1.0 157 157
r 2.64928 0 1 cbr 210 ------- 0 0.0 1.0 157 157
+ 2.6544 0 1 cbr 210 ------- 0 0.0 1.0 158 158
- 2.6544 0 1 cbr 210 ------- 0 0.0 1.0 158 158
r 2.66608 0 1 cbr 210 ------- 0 0.0 1.0 158 158
+ 2.6712 0 1 cbr 210 ------- 0 0.0 1.0 159 159
- 2.6712 0 1 cbr 210 ------- 0 0.0 1.0 159 159
r 2.68288 0 1 cbr 210 ------- 0 0.0 1.0 159 159
+ 2.688 0 1 cbr 210 ------- 0 0.0 1.0 160 160
- 2.688 0 1 cbr 210 ------- 0 0.0 1.0 160 160
r 2.69968 0 1 cbr 210 ------- 0 0.0 1.0 160 160
+ 2.7048 0 1 cbr 210 ------- 0 0.0 1.0 161 161
- 2.7048 0 1 cbr 210 ------- 0 0.0 1.0 161 161
r 2.71648 0 1 cbr 210 ------- 0 0.0 1.0 161 161
+ 2.7216 0 1 cbr 210 ------- 0 0.0 1.0 162 162
- 2.7216 0 1 cbr 210 ------- 0 0.0 1.0 162 162
r 2.73328 0 1 cbr 210 ------- 0 0.0 1.0 162 162
+ 2.7384 0 1 cbr 210 ------- 0 0.0 1.0 163 163
- 2.7384 0 1 cbr 210 ------- 0 0.0 1.0 163 163
r 2.75008 0 1 cbr 210 ------- 0 0.0 1.0 163 163
+ 2.7552 0 1 cbr 210 ------- 0 0.0 1.0 164 164
- 2.7552 0 1 cbr 210 ------- 0 0.0 1.0 164 164
r 2.76688 0 1 cbr 210 ------- 0 0.0 1.0 164 164
+ 2.772 0 1 cbr 210 ------- 0 0.0 1.0 165 165
- 2.772 0 1 cbr 210 ------- 0 0.0 1.0 165 165
r 2.78368 0 1 cbr 210 ------- 0 0.0 1.0 165 165
+ 2.7888 0 1 cbr 210 ------- 0 0.0 1.0 166 166
- 2.7888 0 1 cbr 210 ------- 0 0.0 1.0 166 166
r 2.80048 0 1 cbr 210 ------- 0 0.0 1.0 166 166
+ 2.8056 0 1 cbr 210 ------- 0 0.0 1.0 167 167
- 2.8056 0 1 cbr 210 ------- 0 0.0 1.0 167 167
r 2.81728 0 1 cbr 210 ------- 0 0.0 1.0 167 167
+ 2.8224 0 1 cbr 210 ------- 0 0.0 1.0 168 168
- 2.8224 0 1 cbr 210 ------- 0 0.0 1.0 168 168
r 2.83408 0 1 cbr 210 ------- 0 0.0 1.0 168 168
+ 2.8392 0 1 cbr 210 ------- 0 0.0 1.0 169 169
- 2.8392 0 1 cbr 210 ------- 0 0.0 1.0 169 169
r 2.85088 0 1 cbr 210 ------- 0 0.0 1.0 169 169
+ 2.856 0 1 cbr 210 ------- 0 0.0 1.0 170 170
- 2.856 0 1 cbr 210 ------- 0 0.0 1.0 170 170
r 2.86768 0 1 cbr 210 ------- 0 0.0 1.0 170 170
+ 2.8728 0 1 cbr 210 ------- 0 0.0 1.0 171 171
- 2.8728 0 1 cbr 210 ------- 0 0.0 1.0 171 171
r 2.88448 0 1 cbr 210 ------- 0 0.0 1.0 171 171
+ 2.8896 0 1 cbr 210 ------- 0 0.0 1.0 172 172
- 2.8896 0 1 cbr 210 ------- 0 0.0 1.0 172 172
r 2.90128 0 1 cbr 210 ------- 0 0.0 1.0 172 172
+ 2.9064 0 1 cbr 210 ------- 0 0.0 1.0 173 173
- 2.9064 0 1 cbr 210 ------- 0 0.0 1.0 173 173
r 2.91808 0 1 cbr 210 ------- 0 0.0 1.0 173 173
+ 2.9232 0 1 cbr 210 ------- 0 0.0 1.0 174 174
- 2.9232 0 1 cbr 210 ------- 0 0.0 1.0 174 174
r 2.93488 0 1 cbr 210 ------- 0 0.0 1.0 174 174
+ 2.94 0 1 cbr 210 ------- 0 0.0 1.0 175 175
- 2.94 0 1 cbr 210 ------- 0 0.0 1.0 175 175
r 2.95168 0 1 cbr 210 ------- 0 0.0 1.0 175 175
+ 2.9568 0 1 cbr 210 ------- 0 0.0 1.0 176 176
- 2.9568 0 1 cbr 210 ------- 0 0.0 1.0 176 176
r 2.96848 0 1 cbr 210 ------- 0 0.0 1.0 176 176
+ 2.9736 0 1 cbr 210 ------- 0 0.0 1.0 177 177
- 2.9736 0 1 cbr 210 ------- 0 0.0 1.0 177 177
r 2.98528 0 1 cbr 210 ------- 0 0.0 1.0 177 177
+ 2.9904 0 1 cbr 210 ------- 0 0.0 1.0 178 178
- 2.9904 0 1 cbr 210 ------- 0 0.0 1.0 178 178
r 3.00208 0 1 cbr 210 ------- 0 0.0 1.0 178 178
+ 3.0072 0 1 cbr 210 ------- 0 0.0 1.0 179 179
- 3.0072 0 1 cbr 210 ------- 0 0.0 1.0 179 179
r 3.01888 0 1 cbr 210 ------- 0 0.0 1.0 179 179
+ 3.024 0 1 cbr 210 ------- 0 0.0 1.0 180 180
- 3.024 0 1 cbr 210 ------- 0 0.0 1.0 180 180
r 3.03568 0 1 cbr 210 ------- 0 0.0 1.0 180 180
+ 3.0408 0 1 cbr 210 ------- 0 0.0 1.0 181 181
- 3.0408 0 1 cbr 210 ------- 0 0.0 1.0 181 181
r 3.05248 0 1 cbr 210 ------- 0 0.0 1.0 181 181
+ 3.0576 0 1 cbr 210 ------- 0 0.0 1.0 182 182
- 3.0576 0 1 cbr 210 ------- 0 0.0 1.0 182 182
r 3.06928 0 1 cbr 210 ------- 0 0.0 1.0 182 182
+ 3.0744 0 1 cbr 210 ------- 0 0.0 1.0 183 183
- 3.0744 0 1 cbr 210 ------- 0 0.0 1.0 183 183
r 3.08608 0 1 cbr 210 ------- 0 0.0 1.0 183 183
+ 3.0912 0 1 cbr 210 ------- 0 0.0 1.0 184 184
- 3.0912 0 1 cbr 210 ------- 0 0.0 1.0 184 184
r 3.10288 0 1 cbr 210 ------- 0 0.0 1.0 184 184
+ 3.108 0 1 cbr 210 ------- 0 0.0 1.0 185 185
- 3.108 0 1 cbr 210 ------- 0 0.0 1.0 185 185
r 3.11968 0 1 cbr 210 ------- 0 0.0 1.0 185 185
+ 3.1248 0 1 cbr 210 ------- 0 0.0 1.0 186 186
- 3.1248 0 1 cbr 210 ------- 0 0.0 1.0 186 186
r 3.13648 0 1 cbr 210 ------- 0 0.0 1.0 186 186
+ 3.1416 0 1 cbr 210 ------- 0 0.0 1.0 187 187
- 3.1416 0 1 cbr 210 ------- 0 0.0 1.0 187 187
r 3.15328 0 1 cbr 210 ------- 0 0.0 1.0 187 187
+ 3.1584 0 1 cbr 210 ------- 0 0.0 1.0 188 188
- 3.1584 0 1 cbr 210 ------- 0 0.0 1.0 188 188
r 3.17008 0 1 cbr 210 ------- 0 0.0 1.0 188 188
+ 3.1752 0 1 cbr 210 ------- 0 0.0 1.0 189 189
- 3.1752 0 1 cbr 210 ------- 0 0.0 1.0 189 189
r 3.18688 0 1 cbr 210 ------- 0 0.0 1.0 189 189
+ 3.192 0 1 cbr 210 ------- 0 0.0 1.0 190 190
- 3.192 0 1 cbr 210 ------- 0 0.0 1.0 190 190
r 3.20368 0 1 cbr 210 ------- 0 0.0 1.0 190 190
+ 3.2088 0 1 cbr 210 ------- 0 0.0 1.0 191 191
- 3.2088 0 1 cbr 210 ------- 0 0.0 1.0 191 191
r 3.22048 0 1 cbr 210 ------- 0 0.0 1.0 191 191
+ 3.2256 0 1 cbr 210 ------- 0 0.0 1.0 192 192
- 3.2256 0 1 cbr 210 ------- 0 0.0 1.0 192 192
r 3.23728 0 1 cbr 210 ------- 0 0.0 1.0 192 192
+ 3.2424 0 1 cbr 210 ------- 0 0.0 1.0 193 193
- 3.2424 0 1 cbr 210 ------- 0 0.0 1.0 193 193
r 3.25408 0 1 cbr 210 ------- 0 0.0 1.0 193 193
+ 3.2592 0 1 cbr 210 ------- 0 0.0 1.0 194 194
- 3.2592 0 1 cbr 210 ------- 0 0.0 1.0 194 194
r 3.27088 0 1 cbr 210 ------- 0 0.0 1.0 194 194
+ 3.276 0 1 cbr 210 ------- 0 0.0 1.0 195 195
- 3.276 0 1 cbr 210 ------- 0 0.0 1.0 195 195
r 3.28768 0 1 cbr 210 ------- 0 0.0 1.0 195 195
+ 3.2928 0 1 cbr 210 ------- 0 0.0 1.0 196 196
- 3.2928 0 1 cbr 210 ------- 0 0.0 1.0 196 196
r 3.30448 0 1 cbr 210 ------- 0 0.0 1.0 196 196
+ 3.3096 0 1 cbr 210 ------- 0 0.0 1.0 197 197
- 3.3096 0 1 cbr 210 ------- 0 0.0 1.0 197 197
r 3.32128 0 1 cbr 210 ------- 0 0.0 1.0 197 197
+ 3.3264 0 1 cbr 210 ------- 0 0.0 1.0 198 198
- 3.3264 0 1 cbr 210 ------- 0 0.0 1.0 198 198
r 3.33808 0 1 cbr 210 ------- 0 0.0 1.0 198 198
+ 3.3432 0 1 cbr 210 ------- 0 0.0 1.0 199 199
- 3.3432 0 1 cbr 210 ------- 0 0.0 1.0 199 199
r 3.35488 0 1 cbr 210 ------- 0 0.0 1.0 199 199
+ 3.36 0 1 cbr 210 ------- 0 0.0 1.0 200 200
- 3.36 0 1 cbr 210 ------- 0 0.0 1.0 200 200
r 3.37168 0 1 cbr 210 ------- 0 0.0 1.0 200 200
+ 3.3768 0 1 cbr 210 ------- 0 0.0 1.0 201 201
- 3.3768 0 1 cbr 210 ------- 0 0.0 1.0 201 201
r 3.38848 0 1 cbr 210 ------- 0 0.0 1.0 201 201
+ 3.3936 0 1 cbr 210 ------- 0 0.0 1.0 202 202
- 3.3936 0 1 cbr 210 ------- 0 0.0 1.0 202 202
r 3.40528 0 1 cbr 210 ------- 0 0.0 1.0 202 202
+ 3.4104 0 1 cbr 210 ------- 0 0.0 1.0 203 203
- 3.4104 0 1 cbr 210 ------- 0 0.0 1.0 203 203
r 3.42208 0 1 cbr 210 ------- 0 0.0 1.0 203 203
+ 3.4272 0 1 cbr 210 ------- 0 0.0 1.0 204 204
- 3.4272 0 1 cbr 210 ------- 0 0.0 1.0 204 204
r 3.43888 0 1 cbr 210 ------- 0 0.0 1.0 204 204
+ 3.444 0 1 cbr 210 ------- 0 0.0 1.0 205 205
- 3.444 0 1 cbr 210 ------- 0 0.0 1.0 205 205
r 3.45568 0 1 cbr 210 ------- 0 0.0 1.0 205 205
+ 3.4608 0 1 cbr 210 ------- 0 0.0 1.0 206 206
- 3.4608 0 1 cbr 210 ------- 0 0.0 1.0 206 206
r 3.47248 0 1 cbr 210 ------- 0 0.0 1.0 206 206
+ 3.4776 0 1 cbr 210 ------- 0 0.0 1.0 207 207
- 3.4776 0 1 cbr 210 ------- 0 0.0 1.0 207 207
r 3.48928 0 1 cbr 210 ------- 0 0.0 1.0 207 207
+ 3.4944 0 1 cbr 210 ------- 0 0.0 1.0 208 208
- 3.4944 0 1 cbr 210 ------- 0 0.0 1.0 208 208
r 3.50608 0 1 cbr 210 ------- 0 0.0 1.0 208 208
+ 3.5112 0 1 cbr 210 ------- 0 0.0 1.0 209 209
- 3.5112 0 1 cbr 210 ------- 0 0.0 1.0 209 209
r 3.52288 0 1 cbr 210 ------- 0 0.0 1.0 209 209
+ 3.528 0 1 cbr 210 ------- 0 0.0 1.0 210 210
- 3.528 0 1 cbr 210 ------- 0 0.0 1.0 210 210
r 3.53968 0 1 cbr 210 ------- 0 0.0 1.0 210 210
+ 3.5448 0 1 cbr 210 ------- 0 0.0 1.0 211 211
- 3.5448 0 1 cbr 210 ------- 0 0.0 1.0 211 211
r 3.55648 0 1 cbr 210 ------- 0 0.0 1.0 211 211
+ 3.5616 0 1 cbr 210 ------- 0 0.0 1.0 212 212
- 3.5616 0 1 cbr 210 ------- 0 0.0 1.0 212 212
r 3.57328 0 1 cbr 210 ------- 0 0.0 1.0 212 212
+ 3.5784 0 1 cbr 210 ------- 0 0.0 1.0 213 213
- 3.5784 0 1 cbr 210 ------- 0 0.0 1.0 213 213
r 3.59008 0 1 cbr 210 ------- 0 0.0 1.0 213 213
+ 3.5952 0 1 cbr 210 ------- 0 0.0 1.0 214 214
- 3.5952 0 1 cbr 210 ------- 0 0.0 1.0 214 214
r 3.60688 0 1 cbr 210 ------- 0 0.0 1.0 214 214
+ 3.612 0 1 cbr 210 ------- 0 0.0 1.0 215 215
- 3.612 0 1 cbr 210 ------- 0 0.0 1.0 215 215
r 3.62368 0 1 cbr 210 ------- 0 0.0 1.0 215 215
+ 3.6288 0 1 cbr 210 ------- 0 0.0 1.0 216 216
- 3.6288 0 1 cbr 210 ------- 0 0.0 1.0 216 216