V -t * -v 1.0a5 -a 0
A -t * -n 1 -p 0 -o 0xffffffff -c 31 -a 1
A -t * -h 1 -m 2147483647 -s 0
n -t * -a 0 -s 0 -S UP -v circle -c black -i black
n -t * -a 1 -s 1 -S UP -v circle -c black -i black
l -t * -s 0 -d 1 -S UP -r 1000000 -D 0.01 -c black -o right
q -t * -s 1 -d 0 -a 0.5
q -t * -s 0 -d 1 -a 0.5
+ -t 0 -s 0 -d 1 -p cbr -e 210 -c 0 -i 0 -a 0 -x {0.0 1.0 0 ------- null}
- -t 0 -s 0 -d 1 -p cbr -e 210 -c 0 -i 0 -a 0 -x {0.0 1.0 0 ------- null}
h -t 0 -s 0 -d 1 -p cbr -e 210 -c 0 -i 0 -a 0 -x {0.0 1.0 -1 ------- null}
+ -t 0.00084 -s 0 -d 1 -p cbr -e 210 -c 0 -i 1 -a 0 -x {0.0 1.0 1 ------- null}
- -t 0.00168 -s 0 -d 1 -p cbr -e 210 -c 0 -i 1 -a 0 -x {0.0 1.0 1 ------- null}
h -t 0.00168 -s 0 -d 1 -p cbr -e 210 -c 0 -i 1 -a 0 -x {0.0 1.0 -1 ------- null}
+ -t 0.00168 -s 0 -d 1 -p cbr -e 210 -c 0 -i 2 -a 0 -x {0.0 1.0 2 ------- null}
+ -t 0.00252 -s 0 -d 1 -p cbr -e 210 -c 0 -i 3 -a 0 -x {0.0 1.0 3 ------- null}
- -t 0.00336 -s 0 -d 1 -p cbr -e 210 -c 0 -i 2 -a 0 -x {0.0 1.0 2 ------- null}
h -t 0.00336 -s 0 -d 1 -p cbr -e 210 -c 0 -i 2 -a 0 -x {0.0 1.0 -1 ------- null}
+ -t 0.00336 -s 0 -d 1 -p cbr -e 210 -c 0 -i 4 -a 0 -x {0.0 1.0 4 ------- null}
+ -t 0.0042 -s 0 -d 1 -p cbr -e 210 -c 0 -i 5 -a 0 -x {0.0 1.0 5 ------- null}
- -t 0.00504 -s 0 -d 1 -p cbr -e 210 -c 0 -i 3 -a 0 -x {0.0 1.0 3 ------- null}
h -t 0.00504 -s 0 -d 1 -p cbr -e 210 -c 0 -i 3 -a 0 -x {0.0 1.0 -1 ------- null}
+ -t 0.00504 -s 0 -d 1 -p cbr -e 210 -c 0 -i 6 -a 0 -x {0.0 1.0 6 ------- null}
+ -t 0.00588 -s 0 -d 1 -p cbr -e 210 -c 0 -i 7 -a 0 -x {0.0 1.0 7 ------- null}
- -t 0.00672 -s 0 -d 1 -p cbr -e 210 -c 0 -i 4 -a 0 -x {0.0 1.0 4 ------- null}
h -t 0.00672 -s 0 -d 1 -p cbr -e 210 -c 0 -i 4 -a 0 -x {0.0 1.0 -1 ------- null}
+ -t 0.00672 -s 0 -d 1 -p cbr -e 210 -c 0 -i 8 -a 0 -x {0.0 1.0 8 ------- null}
+ -t 0.00756 -s 0 -d 1 -p cbr -e 210 -c 0 -i 9 -a 0 -x {0.0 1.0 9 ------- null}
- -t 0.0084 -s 0 -d 1 -p cbr -e 210 -c 0 -i 5 -a 0 -x {0.0 1.0 5 ------- null}
h -t 0.0084 -s 0 -d 1 -p cbr -e 210 -c 0 -i 5 -a 0 -x {0.0 1.0 -1 ------- null}
+ -t 0.0084 -s 0 -d 1 -p cbr -e 210 -c 0 -i 10 -a 0 -x {0.0 1.0 10 ------- null}
+ -t 0.00924 -s 0 -d 1 -p cbr -e 210 -c 0 -i 11 -a 0 -x {0.0 1.0 11 ------- null}
- -t 0.01008 -s 0 -d 1 -p cbr -e 210 -c 0 -i 6 -a 0 -x {0.0 1.0 6 ------- null}
h -t 0.01008 -s 0 -d 1 -p cbr -e 210 -c 0 -i 6 -a 0 -x {0.0 1.0 -1 ------- null}
+ -t 0.01008 -s 0 -d 1 -p cbr -e 210 -c 0 -i 12 -a 0 -x {0.0 1.0 12 ------- null}
+ -t 0.01092 -s 0 -d 1 -p cbr -e 210 -c 0 -i 13 -a 0 -x {0.0 1.0 13 ------- null}
r -t 0.01168 -s 0 -d 1 -p cbr -e 210 -c 0 -i 0 -a 0 -x {0.0 1.0 0 ------- null}
- -t 0.01176 -s 0 -d 1 -p cbr -e 210 -c 0 -i 7 -a 0 -x {0.0 1.0 7 ------- null}
h -t 0.01176 -s 0 -d 1 -p cbr -e 210 -c 0 -i 7 -a 0 -x {0.0 1.0 -1 ------- null}
+ -t 0.01176 -s 0 -d 1 -p cbr -e 210 -c 0 -i 14 -a 0 -x {0.0 1.0 14 ------- null}
+ -t 0.0126 -s 0 -d 1 -p cbr -e 210 -c 0 -i 15 -a 0 -x {0.0 1.0 15 ------- null}
r -t 0.01336 -s 0 -d 1 -p cbr -e 210 -c 0 -i 1 -a 0 -x {0.0 1.0 1 ------- null}
- -t 0.01344 -s 0 -d 1 -p cbr -e 210 -c 0 -i 8 -a 0 -x {0.0 1.0 8 ------- null}
h -t 0.01344 -s 0 -d 1 -p cbr -e 210 -c 0 -i 8 -a 0 -x {0.0 1.0 -1 ------- null}
+ -t 0.01344 -s 0 -d 1 -p cbr -e 210 -c 0 -i 16 -a 0 -x {0.0 1.0 16 ------- null}
+ -t 0.01428 -s 0 -d 1 -p cbr -e 210 -c 0 -i 17 -a 0 -x {0.0 1.0 17 ------- null}
r -t 0.01504 -s 0 -d 1 -p cbr -e 210 -c 0 -i 2 -a 0 -x {0.0 1.0 2 ------- null}
- -t 0.01512 -s 0 -d 1 -p cbr -e 210 -c 0 -i 9 -a 0 -x {0.0 1.0 9 ------- null}
h -t 0.01512 -s 0 -d 1 -p cbr -e 210 -c 0 -i 9 -a 0 -x {0.0 1.0 -1 ------- null}
+ -t 0.01512 -s 0 -d 1 -p cbr -e 210 -c 0 -i 18 -a 0 -x {0.0 1.0 18 ------- null}
+ -t 0.01596 -s 0 -d 1 -p cbr -e 210 -c 0 -i 19 -a 0 -x {0.0 1.0 19 ------- null}
r -t 0.01672 -s 0 -d 1 -p cbr -e 210 -c 0 -i 3 -a 0 -x {0.0 1.0 3 ------- null}
- -t 0.0168 -s 0 -d 1 -p cbr -e 210 -c 0 -i 10 -a 0 -x {0.0 1.0 10 ------- null}
h -t 0.0168 -s 0 -d 1 -p cbr -e 210 -c 0 -i 10 -a 0 -x {0.0 1.0 -1 ------- null}
+ -t 0.0168 -s 0 -d 1 -p cbr -e 210 -c 0 -i 20 -a 0 -x {0.0 1.0 20 ------- null}
+ -t 0.01764 -s 0 -d 1 -p cbr -e 210 -c 0 -i 21 -a 0 -x {0.0 1.0 21 ------- null}
r -t 0.0184 -s 0 -d 1 -p cbr -e 210 -c 0 -i 4 -a 0 -x {0.0 1.0 4 ------- null}
- -t 0.01848 -s 0 -d 1 -p cbr -e 210 -c 0 -i 11 -a 0 -x {0.0 1.0 11 ------- null}
h -t 0.01848 -s 0 -d 1 -p cbr -e 210 -c 0 -i 11 -a 0 -x {0.0 1.0 -1 ------- null}
+ -t 0.01848 -s 0 -d 1 -p cbr -e 210 -c 0 -i 22 -a 0 -x {0.0 1.0 22 ------- null}
+ -t 0.01932 -s 0 -d 1 -p cbr -e 210 -c 0 -i 23 -a 0 -x {0.0 1.0 23 ------- null}
r -t 0.02008 -s 0 -d 1 -p cbr -e 210 -c 0 -i 5 -a 0 -x {0.0 1.0 5 ------- null}
- -t 0.02016 -s 0 -d 1 -p cbr -e 210 -c 0 -i 12 -a 0 -x {0.0 1.0 12 ------- null}
h -t 0.02016 -s 0 -d 1 -p cbr -e 210 -c 0 -i 12 -a 0 -x {0.0 1.0 -1 ------- null}
+ -t 0.02016 -s 0 -d 1 -p cbr -e 210 -c 0 -i 24 -a 0 -x {0.0 1.0 24 ------- null}
+ -t 0.021 -s 0 -d 1 -p cbr -e 210 -c 0 -i 25 -a 0 -x {0.0 1.0 25 ------- null}
r -t 0.02176 -s 0 -d 1 -p cbr -e 210 -c 0 -i 6 -a 0 -x {0.0 1.0 6 ------- null}
- -t 0.02184 -s 0 -d 1 -p cbr -e 210 -c 0 -i 13 -a 0 -x {0.0 1.0 13 ------- null}
h -t 0.02184 -s 0 -d 1 -p cbr -e 210 -c 0 -i 13 -a 0 -x {0.0 1.0 -1 ------- null}
+ -t 0.02184 -s 0 -d 1 -p cbr -e 210 -c 0 -i 26 -a 0 -x {0.0 1.0 26 ------- null}
+ -t 0.02268 -s 0 -d 1 -p cbr -e 210 -c 0 -i 27 -a 0 -x {0.0 1.0 27 ------- null}
r -t 0.02344 -s 0 -d 1 -p cbr -e 210 -c 0 -i 7 -a 0 -x {0.0 1.0 7 ------- null}
- -t 0.02352 -s 0 -d 1 -p cbr -e 210 -c 0 -i 14 -a 0 -x {0.0 1.0 14 ------- null}
h -t 0.02352 -s 0 -d 1 -p cbr -e 210 -c 0 -i 14 -a 0 -x {0.0 1.0 -1 ------- null}
+ -t 0.02352 -s 0 -d 1 -p cbr -e 210 -c 0 -i 28 -a 0 -x {0.0 1.0 28 ------- null}
+ -t 0.02436 -s 0 -d 1 -p cbr -e 210 -c 0 -i 29 -a 0 -x {0.0 1.0 29 ------- null}
r -t 0.02512 -s 0 -d 1 -p cbr -e 210 -c 0 -i 8 -a 0 -x {0.0 1.0 8 ------- null}
- -t 0.0252 -s 0 -d 1 -p cbr -e 210 -c 0 -i 15 -a 0 -x {0.0 1.0 15 ------- null}
h -t 0.0252 -s 0 -d 1 -p cbr -e 210 -c 0 -i 15 -a 0 -x {0.0 1.0 -1 ------- null}
+ -t 0.0252 -s 0 -d 1 -p cbr -e 210 -c 0 -i 30 -a 0 -x {0.0 1.0 30 ------- null}
+ -t 0.02604 -s 0 -d 1 -p cbr -e 210 -c 0 -i 31 -a 0 -x {0.0 1.0 31 ------- null}
r -t 0.0268 -s 0 -d 1 -p cbr -e 210 -c 0 -i 9 -a 0 -x {0.0 1.0 9 ------- null}
- -t 0.02688 -s 0 -d 1 -p cbr -e 210 -c 0 -i 16 -a 0 -x {0.0 1.0 16 ------- null}
h -t 0.02688 -s 0 -d 1 -p cbr -e 210 -c 0 -i 16 -a 0 -x {0.0 1.0 -1 ------- null}
+ -t 0.02688 -s 0 -d 1 -p cbr -e 210 -c 0 -i 32 -a 0 -x {0.0 1.0 32 ------- null}
+ -t 0.02772 -s 0 -d 1 -p cbr -e 210 -c 0 -i 33 -a 0 -x {0.0 1.0 33 ------- null}
r -t 0.02848 -s 0 -d 1 -p cbr -e 210 -c 0 -i 10 -a 0 -x {0.0 1.0 10 ------- null}
- -t 0.02856 -s 0 -d 1 -p cbr -e 210 -c 0 -i 17 -a 0 -x {0.0 1.0 17 ------- null}
h -t 0.02856 -s 0 -d 1 -p cbr -e 210 -c 0 -i 17 -a 0 -x {0.0 1.0 -1 ------- null}
+ -t 0.02856 -s 0 -d 1 -p cbr -e 210 -c 0 -i 34 -a 0 -x {0.0 1.0 34 ------- null}
+ -t 0.0294 -s 0 -d 1 -p cbr -e 210 -c 0 -i 35 -a 0 -x {0.0 1.0 35 ------- null}
r -t 0.03016 -s 0 -d 1 -p cbr -e 210 -c 0 -i 11 -a 0 -x {0.0 1.0 11 ------- null}
- -t 0.03024 -s 0 -d 1 -p cbr -e 210 -c 0 -i 18 -a 0 -x {0.0 1.0 18 ------- null}
h -t 0.03024 -s 0 -d 1 -p cbr -e 210 -c 0 -i 18 -a 0 -x {0.0 1.0 -1 ------- null}
+ -t 0.03024 -s 0 -d 1 -p cbr -e 210 -c 0 -i 36 -a 0 -x {0.0 1.0 36 ------- null}
+ -t 0.03108 -s 0 -d 1 -p cbr -e 210 -c 0 -i 37 -a 0 -x {0.0 1.0 37 ------- null}
r -t 0.03184 -s 0 -d 1 -p cbr -e 210 -c 0 -i 12 -a 0 -x {0.0 1.0 12 ------- null}
- -t 0.03192 -s 0 -d 1 -p cbr -e 210 -c 0 -i 19 -a 0 -x {0.0 1.0 19 ------- null}
h -t 0.03192 -s 0 -d 1 -p cbr -e 210 -c 0 -i 19 -a 0 -x {0.0 1.0 -1 ------- null}
+ -t 0.03192 -s 0 -d 1 -p cbr -e 210 -c 0 -i 38 -a 0 -x {0.0 1.0 38 ------- null}
+ -t 0.03276 -s 0 -d 1 -p cbr -e 210 -c 0 -i 39 -a 0 -x {0.0 1.0 39 ------- null}
r -t 0.03352 -s 0 -d 1 -p cbr -e 210 -c 0 -i 13 -a 0 -x {0.0 1.0 13 ------- null}
- -t 0.0336 -s 0 -d 1 -p cbr -e 210 -c 0 -i 20 -a 0 -x {0.0 1.0 20 ------- null}
h -t 0.0336 -s 0 -d 1 -p cbr -e 210 -c 0 -i 20 -a 0 -x {0.0 1.0 -1 ------- null}
+ -t 0.0336 -s 0 -d 1 -p cbr -e 210 -c 0 -i 40 -a 0 -x {0.0 1.0 40 ------- null}
+ -t 0.03444 -s 0 -d 1 -p cbr -e 210 -c 0 -i 41 -a 0 -x {0.0 1.0 41 ------- null}
r -t 0.0352 -s 0 -d 1 -p cbr -e 210 -c 0 -i 14 -a 0 -x {0.0 1.0 14 ------- null}
- -t 0.03528 -s 0 -d 1 -p cbr -e 210 -c 0 -i 21 -a 0 -x {0.0 1.0 21 ------- null}
h -t 0.03528 -s 0 -d 1 -p cbr -e 210 -c 0 -i 21 -a 0 -x {0.0 1.0 -1 ------- null}
+ -t 0.03528 -s 0 -d 1 -p cbr -e 210 -c 0 -i 42 -a 0 -x {0.0 1.0 42 ------- null}
+ -t 0.03612 -s 0 -d 1 -p cbr -e 210 -c 0 -i 43 -a 0 -x {0.0 1.0 43 ------- null}
r -t 0.03688 -s 0 -d 1 -p cbr -e 210 -c 0 -i 15 -a 0 -x {0.0 1.0 15 ------- null}
- -t 0.03696 -s 0 -d 1 -p cbr -e 210 -c 0 -i 22 -a 0 -x {0.0 1.0 22 ------- null}
h -t 0.03696 -s 0 -d 1 -p cbr -e 210 -c 0 -i 22 -a 0 -x {0.0 1.0 -1 ------- null}
+ -t 0.03696 -s 0 -d 1 -p cbr -e 210 -c 0 -i 44 -a 0 -x {0.0 1.0 44 ------- null}
+ -t 0.0378 -s 0 -d 1 -p cbr -e 210 -c 0 -i 45 -a 0 -x {0.0 1.0 45 ------- null}
r -t 0.03856 -s 0 -d 1 -p cbr -e 210 -c 0 -i 16 -a 0 -x {0.0 1.0 16 ------- null}
- -t 0.03864 -s 0 -d 1 -p cbr -e 210 -c 0 -i 23 -a 0 -x {0.0 1.0 23 ------- null}
h -t 0.03864 -s 0 -d 1 -p cbr -e 210 -c 0 -i 23 -a 0 -x {0.0 1.0 -1 ------- null}
+ -t 0.03864 -s 0 -d 1 -p cbr -e 210 -c 0 -i 46 -a 0 -x {0.0 1.0 46 ------- null}
+ -t 0.03948 -s 0 -d 1 -p cbr -e 210 -c 0 -i 47 -a 0 -x {0.0 1.0 47 ------- null}
r -t 0.04024 -s 0 -d 1 -p cbr -e 210 -c 0 -i 17 -a 0 -x {0.0 1.0 17 ------- null}
- -t 0.04032 -s 0 -d 1 -p cbr -e 210 -c 0 -i 24 -a 0 -x {0.0 1.0 24 ------- null}
h -t 0.04032 -s 0 -d 1 -p cbr -e 210 -c 0 -i 24 -a 0 -x {0.0 1.0 -1 ------- null}
+ -t 0.04032 -s 0 -d 1 -p cbr -e 210 -c 0 -i 48 -a 0 -x {0.0 1.0 48 ------- null}
+ -t 0.04116 -s 0 -d 1 -p cbr -e 210 -c 0 -i 49 -a 0 -x {0.0 1.0 49 ------- null}
r -t 0.04192 -s 0 -d 1 -p cbr -e 210 -c 0 -i 18 -a 0 -x {0.0 1.0 18 ------- null}
- -t 0.042 -s 0 -d 1 -p cbr -e 210 -c 0 -i 25 -a 0 -x {0.0 1.0 25 ------- null}
h -t 0.042 -s 0 -d 1 -p cbr -e 210 -c 0 -i 25 -a 0 -x {0.0 1.0 -1 ------- null}
+ -t 0.042 -s 0 -d 1 -p cbr -e 210 -c 0 -i 50 -a 0 -x {0.0 1.0 50 ------- null}
+ -t 0.04284 -s 0 -d 1 -p cbr -e 210 -c 0 -i 51 -a 0 -x {0.0 1.0 51 ------- null}
r -t 0.0436 -s 0 -d 1 -p cbr -e 210 -c 0 -i 19 -a 0 -x {0.0 1.0 19 ------- null}
- -t 0.04368 -s 0 -d 1 -p cbr -e 210 -c 0 -i 26 -a 0 -x {0.0 1.0 26 ------- null}
h -t 0.04368 -s 0 -d 1 -p cbr -e 210 -c 0 -i 26 -a 0 -x {0.0 1.0 -1 ------- null}
+ -t 0.04368 -s 0 -d 1 -p cbr -e 210 -c 0 -i 52 -a 0 -x {0.0 1.0 52 ------- null}
+ -t 0.04452 -s 0 -d 1 -p cbr -e 210 -c 0 -i 53 -a 0 -x {0.0 1.0 53 ------- null}
r -t 0.04528 -s 0 -d 1 -p cbr -e 210 -c 0 -i 20 -a 0 -x {0.0 1.0 20 ------- null}
- -t 0.04536 -s 0 -d 1 -p cbr -e 210 -c 0 -i 27 -a 0 -x {0.0 1.0 27 ------- null}
h -t 0.04536 -s 0 -d 1 -p cbr -e 210 -c 0 -i 27 -a 0 -x {0.0 1.0 -1 ------- null}
+ -t 0.04536 -s 0 -d 1 -p cbr -e 210 -c 0 -i 54 -a 0 -x {0.0 1.0 54 ------- null}
+ -t 0.0462 -s 0 -d 1 -p cbr -e 210 -c 0 -i 55 -a 0 -x {0.0 1.0 55 ------- null}
r -t 0.04696 -s 0 -d 1 -p cbr -e 210 -c 0 -i 21 -a 0 -x {0.0 1.0 21 ------- null}
- -t 0.04704 -s 0 -d 1 -p cbr -e 210 -c 0 -i 28 -a 0 -x {0.0 1.0 28 ------- null}
h -t 0.04704 -s 0 -d 1 -p cbr -e 210 -c 0 -i 28 -a 0 -x {0.0 1.0 -1 ------- null}
+ -t 0.04704 -s 0 -d 1 -p cbr -e 210 -c 0 -i 56 -a 0 -x {0.0 1.0 56 ------- null}
+ -t 0.04788 -s 0 -d 1 -p cbr -e 210 -c 0 -i 57 -a 0 -x {0.0 1.0 57 ------- null}
r -t 0.04864 -s 0 -d 1 -p cbr -e 210 -c 0 -i 22 -a 0 -x {0.0 1.0 22 ------- null}
- -t 0.04872 -s 0 -d 1 -p cbr -e 210 -c 0 -i 29 -a 0 -x {0.0 1.0 29 ------- null}
h -t 0.04872 -s 0 -d 1 -p cbr -e 210 -c 0 -i 29 -a 0 -x {0.0 1.0 -1 ------- null}
+ -t 0.04872 -s 0 -d 1 -p cbr -e 210 -c 0 -i 58 -a 0 -x {0.0 1.0 58 ------- null}
+ -t 0.04956 -s 0 -d 1 -p cbr -e 210 -c 0 -i 59 -a 0 -x {0.0 1.0 59 ------- null}
r -t 0.05032 -s 0 -d 1 -p cbr -e 210 -c 0 -i 23 -a 0 -x {0.0 1.0 23 ------- null}
- -t 0.0504 -s 0 -d 1 -p cbr -e 210 -c 0 -i 30 -a 0 -x {0.0 1.0 30 ------- null}
h -t 0.0504 -s 0 -d 1 -p cbr -e 210 -c 0 -i 30 -a 0 -x {0.0 1.0 -1 ------- null}
+ -t 0.0504 -s 0 -d 1 -p cbr -e 210 -c 0 -i 60 -a 0 -x {0.0 1.0 60 ------- null}
+ -t 0.05124 -s 0 -d 1 -p cbr -e 210 -c 0 -i 61 -a 0 -x {0.0 1.0 61 ------- null}
r -t 0.052 -s 0 -d 1 -p cbr -e 210 -c 0 -i 24 -a 0 -x {0.0 1.0 24 ------- null}
- -t 0.05208 -s 0 -d 1 -p cbr -e 210 -c 0 -i 31 -a 0 -x {0.0 1.0 31 ------- null}
h -t 0.05208 -s 0 -d 1 -p cbr -e 210 -c 0 -i 31 -a 0 -x {0.0 1.0 -1 ------- null}
+ -t 0.05208 -s 0 -d 1 -p cbr -e 210 -c 0 -i 62 -a 0 -x {0.0 1.0 62 ------- null}
+ -t 0.05292 -s 0 -d 1 -p cbr -e 210 -c 0 -i 63 -a 0 -x {0.0 1.0 63 ------- null}
r -t 0.05368 -s 0 -d 1 -p cbr -e 210 -c 0 -i 25 -a 0 -x {0.0 1.0 25 ------- null}
- -t 0.05376 -s 0 -d 1 -p cbr -e 210 -c 0 -i 32 -a 0 -x {0.0 1.0 32 ------- null}
h -t 0.05376 -s 0 -d 1 -p cbr -e 210 -c 0 -i 32 -a 0 -x {0.0 1.0 -1 ------- null}
+ -t 0.05376 -s 0 -d 1 -p cbr -e 210 -c 0 -i 64 -a 0 -x {0.0 1.0 64 ------- null}
+ -t 0.0546 -s 0 -d 1 -p cbr -e 210 -c 0 -i 65 -a 0 -x {0.0 1.0 65 ------- null}
r -t 0.05536 -s 0 -d 1 -p cbr -e 210 -c 0 -i 26 -a 0 -x {0.0 1.0 26 ------- null}
- -t 0.05544 -s 0 -d 1 -p cbr -e 210 -c 0 -i 33 -a 0 -x {0.0 1.0 33 ------- null}
h -t 0.05544 -s 0 -d 1 -p cbr -e 210 -c 0 -i 33 -a 0 -x {0.0 1.0 -1 ------- null}
+ -t 0.05544 -s 0 -d 1 -p cbr -e 210 -c 0 -i 66 -a 0 -x {0.0 1.0 66 ------- null}
+ -t 0.05628 -s 0 -d 1 -p cbr -e 210 -c 0 -i 67 -a 0 -x {0.0 1.0 67 ------- null}
r -t 0.05704 -s 0 -d 1 -p cbr -e 210 -c 0 -i 27 -a 0 -x {0.0 1.0 27 ------- null}
- -t 0.05712 -s 0 -d 1 -p cbr -e 210 -c 0 -i 34 -a 0 -x {0.0 1.0 34 ------- null}
h -t 0.05712 -s 0 -d 1 -p cbr -e 210 -c 0 -i 34 -a 0 -x {0.0 1.0 -1 ------- null}
+ -t 0.05712 -s 0 -d 1 -p cbr -e 210 -c 0 -i 68 -a 0 -x {0.0 1.0 68 ------- null}
+ -t 0.05796 -s 0 -d 1 -p cbr -e 210 -c 0 -i 69 -a 0 -x {0.0 1.0 69 ------- null}
r -t 0.05872 -s 0 -d 1 -p cbr -e 210 -c 0 -i 28 -a 0 -x {0.0 1.0 28 ------- null}
- -t 0.0588 -s 0 -d 1 -p cbr -e 210 -c 0 -i 35 -a 0 -x {0.0 1.0 35 ------- null}
h -t 0.0588 -s 0 -d 1 -p cbr -e 210 -c 0 -i 35 -a 0 -x {0.0 1.0 -1 ------- null}
+ -t 0.0588 -s 0 -d 1 -p cbr -e 210 -c 0 -i 70 -a 0 -x {0.0 1.0 70 ------- null}
+ -t 0.05964 -s 0 -d 1 -p cbr -e 210 -c 0 -i 71 -a 0 -x {0.0 1.0 71 ------- null}
r -t 0.0604 -s 0 -d 1 -p cbr -e 210 -c 0 -i 29 -a 0 -x {0.0 1.0 29 ------- null}
- -t 0.06048 -s 0 -d 1 -p cbr -e 210 -c 0 -i 36 -a 0 -x {0.0 1.0 36 ------- null}
h -t 0.06048 -s 0 -d 1 -p cbr -e 210 -c 0 -i 36 -a 0 -x {0.0 1.0 -1 ------- null}
+ -t 0.06048 -s 0 -d 1 -p cbr -e 210 -c 0 -i 72 -a 0 -x {0.0 1.0 72 ------- null}
+ -t 0.06132 -s 0 -d 1 -p cbr -e 210 -c 0 -i 73 -a 0 -x {0.0 1.0 73 ------- null}
r -t 0.06208 -s 0 -d 1 -p cbr -e 210 -c 0 -i 30 -a 0 -x {0.0 1.0 30 ------- null}
- -t 0.06216 -s 0 -d 1 -p cbr -e 210 -c 0 -i 37 -a 0 -x {0.0 1.0 37 ------- null}
h -t 0.06216 -s 0 -d 1 -p cbr -e 210 -c 0 -i 37 -a 0 -x {0.0 1.0 -1 ------- null}
+ -t 0.06216 -s 0 -d 1 -p cbr -e 210 -c 0 -i 74 -a 0 -x {0.0 1.0 74 ------- null}
+ -t 0.063 -s 0 -d 1 -p cbr -e 210 -c 0 -i 75 -a 0 -x {0.0 1.0 75 ------- null}
r -t 0.06376 -s 0 -d 1 -p cbr -e 210 -c 0 -i 31 -a 0 -x {0.0 1.0 31 ------- null}
- -t 0.06384 -s 0 -d 1 -p cbr -e 210 -c 0 -i 38 -a 0 -x {0.0 1.0 38 ------- null}
h -t 0.06384 -s 0 -d 1 -p cbr -e 210 -c 0 -i 38 -a 0 -x {0.0 1.0 -1 ------- null}
+ -t 0.06384 -s 0 -d 1 -p cbr -e 210 -c 0 -i 76 -a 0 -x {0.0 1.0 76 ------- null}
+ -t 0.06468 -s 0 -d 1 -p cbr -e 210 -c 0 -i 77 -a 0 -x {0.0 1.0 77 ------- null}
r -t 0.06544 -s 0 -d 1 -p cbr -e 210 -c 0 -i 32 -a 0 -x {0.0 1.0 32 ------- null}
+ -t 0.06552 -s 0 -d 1 -p cbr -e 210 -c 0 -i 78 -a 0 -x {0.0 1.0 78 ------- null}
- -t 0.06552 -s 0 -d 1 -p cbr -e 210 -c 0 -i 39 -a 0 -x {0.0 1.0 39 ------- null}
h -t 0.06552 -s 0 -d 1 -p cbr -e 210 -c 0 -i 39 -a 0 -x {0.0 1.0 -1 ------- null}
+ -t 0.06636 -s 0 -d 1 -p cbr -e 210 -c 0 -i 79 -a 0 -x {0.0 1.0 79 ------- null}
r -t 0.06712 -s 0 -d 1 -p cbr -e 210 -c 0 -i 33 -a 0 -x {0.0 1.0 33 ------- null}
+ -t 0.0672 -s 0 -d 1 -p cbr -e 210 -c 0 -i 80 -a 0 -x {0.0 1.0 80 ------- null}
- -t 0.0672 -s 0 -d 1 -p cbr -e 210 -c 0 -i 40 -a 0 -x {0.0 1.0 40 ------- null}
h -t 0.0672 -s 0 -d 1 -p cbr -e 210 -c 0 -i 40 -a 0 -x {0.0 1.0 -1 ------- null}
+ -t 0.06804 -s 0 -d 1 -p cbr -e 210 -c 0 -i 81 -a 0 -x {0.0 1.0 81 ------- null}
r -t 0.0688 -s 0 -d 1 -p cbr -e 210 -c 0 -i 34 -a 0 -x {0.0 1.0 34 ------- null}
+ -t 0.06888 -s 0 -d 1 -p cbr -e 210 -c 0 -i 82 -a 0 -x {0.0 1.0 82 ------- null}
- -t 0.06888 -s 0 -d 1 -p cbr -e 210 -c 0 -i 41 -a 0 -x {0.0 1.0 41 ------- null}
h -t 0.06888 -s 0 -d 1 -p cbr -e 210 -c 0 -i 41 -a 0 -x {0.0 1.0 -1 ------- null}
+ -t 0.06972 -s 0 -d 1 -p cbr -e 210 -c 0 -i 83 -a 0 -x {0.0 1.0 83 ------- null}
r -t 0.07048 -s 0 -d 1 -p cbr -e 210 -c 0 -i 35 -a 0 -x {0.0 1.0 35 ------- null}
+ -t 0.07056 -s 0 -d 1 -p cbr -e 210 -c 0 -i 84 -a 0 -x {0.0 1.0 84 ------- null}
- -t 0.07056 -s 0 -d 1 -p cbr -e 210 -c 0 -i 42 -a 0 -x {0.0 1.0 42 ------- null}
h -t 0.07056 -s 0 -d 1 -p cbr -e 210 -c 0 -i 42 -a 0 -x {0.0 1.0 -1 ------- null}
+ -t 0.0714 -s 0 -d 1 -p cbr -e 210 -c 0 -i 85 -a 0 -x {0.0 1.0 85 ------- null}
r -t 0.07216 -s 0 -d 1 -p cbr -e 210 -c 0 -i 36 -a 0 -x {0.0 1.0 36 ------- null}
+ -t 0.07224 -s 0 -d 1 -p cbr -e 210 -c 0 -i 86 -a 0 -x {0.0 1.0 86 ------- null}
- -t 0.07224 -s 0 -d 1 -p cbr -e 210 -c 0 -i 43 -a 0 -x {0.0 1.0 43 ------- null}
h -t 0.07224 -s 0 -d 1 -p cbr -e 210 -c 0 -i 43 -a 0 -x {0.0 1.0 -1 ------- null}
+ -t 0.07308 -s 0 -d 1 -p cbr -e 210 -c 0 -i 87 -a 0 -x {0.0 1.0 87 ------- null}
r -t 0.07384 -s 0 -d 1 -p cbr -e 210 -c 0 -i 37 -a 0 -x {0.0 1.0 37 ------- null}
+ -t 0.0739199999999999 -s 0 -d 1 -p cbr -e 210 -c 0 -i 88 -a 0 -x {0.0 1.0 88 ------- null}
- -t 0.07392 -s 0 -d 1 -p cbr -e 210 -c 0 -i 44 -a 0 -x {0.0 1.0 44 ------- null}
h -t 0.07392 -s 0 -d 1 -p cbr -e 210 -c 0 -i 44 -a 0 -x {0.0 1.0 -1 ------- null}
+ -t 0.0747599999999999 -s 0 -d 1 -p cbr -e 210 -c 0 -i 89 -a 0 -x {0.0 1.0 89 ------- null}
r -t 0.07552 -s 0 -d 1 -p cbr -e 210 -c 0 -i 38 -a 0 -x {0.0 1.0 38 ------- null}
+ -t 0.0755999999999999 -s 0 -d 1 -p cbr -e 210 -c 0 -i 90 -a 0 -x {0.0 1.0 90 ------- null}
- -t 0.0756 -s 0 -d 1 -p cbr -e 210 -c 0 -i 45 -a 0 -x {0.0 1.0 45 ------- null}
h -t 0.0756 -s 0 -d 1 -p cbr -e 210 -c 0 -i 45 -a 0 -x {0.0 1.0 -1 ------- null}
+ -t 0.0764399999999999 -s 0 -d 1 -p cbr -e 210 -c 0 -i 91 -a 0 -x {0.0 1.0 91 ------- null}
r -t 0.0772 -s 0 -d 1 -p cbr -e 210 -c 0 -i 39 -a 0 -x {0.0 1.0 39 ------- null}
+ -t 0.0772799999999999 -s 0 -d 1 -p cbr -e 210 -c 0 -i 92 -a 0 -x {0.0 1.0 92 ------- null}
- -t 0.07728 -s 0 -d 1 -p cbr -e 210 -c 0 -i 46 -a 0 -x {0.0 1.0 46 ------- null}
h -t 0.07728 -s 0 -d 1 -p cbr -e 210 -c 0 -i 46 -a 0 -x {0.0 1.0 -1 ------- null}
+ -t 0.0781199999999999 -s 0 -d 1 -p cbr -e 210 -c 0 -i 93 -a 0 -x {0.0 1.0 93 ------- null}
r -t 0.07888 -s 0 -d 1 -p cbr -e 210 -c 0 -i 40 -a 0 -x {0.0 1.0 40 ------- null}
+ -t 0.0789599999999999 -s 0 -d 1 -p cbr -e 210 -c 0 -i 94 -a 0 -x {0.0 1.0 94 ------- null}
- -t 0.07896 -s 0 -d 1 -p cbr -e 210 -c 0 -i 47 -a 0 -x {0.0 1.0 47 ------- null}
h -t 0.07896 -s 0 -d 1 -p cbr -e 210 -c 0 -i 47 -a 0 -x {0.0 1.0 -1 ------- null}
+ -t 0.0797999999999999 -s 0 -d 1 -p cbr -e 210 -c 0 -i 95 -a 0 -x {0.0 1.0 95 ------- null}
r -t 0.08056 -s 0 -d 1 -p cbr -e 210 -c 0 -i 41 -a 0 -x {0.0 1.0 41 ------- null}
+ -t 0.0806399999999999 -s 0 -d 1 -p cbr -e 210 -c 0 -i 96 -a 0 -x {0.0 1.0 96 ------- null}
- -t 0.08064 -s 0 -d 1 -p cbr -e 210 -c 0 -i 48 -a 0 -x {0.0 1.0 48 ------- null}
h -t 0.08064 -s 0 -d 1 -p cbr -e 210 -c 0 -i 48 -a 0 -x {0.0 1.0 -1 ------- null}
+ -t 0.0814799999999999 -s 0 -d 1 -p cbr -e 210 -c 0 -i 97 -a 0 -x {0.0 1.0 97 ------- null}
r -t 0.08224 -s 0 -d 1 -p cbr -e 210 -c 0 -i 42 -a 0 -x {0.0 1.0 42 ------- null}
+ -t 0.0823199999999999 -s 0 -d 1 -p cbr -e 210 -c 0 -i 98 -a 0 -x {0.0 1.0 98 ------- null}
d -t 0.0823199999999999 -s 0 -d 1 -p cbr -e 210 -c 0 -i 98 -a 0 -x {0.0 1.0 98 ------- null}
- -t 0.08232 -s 0 -d 1 -p cbr -e 210 -c 0 -i 49 -a 0 -x {0.0 1.0 49 ------- null}
h -t 0.08232 -s 0 -d 1 -p cbr -e 210 -c 0 -i 49 -a 0 -x {0.0 1.0 -1 ------- null}
+ -t 0.0831599999999999 -s 0 -d 1 -p cbr -e 210 -c 0 -i 99 -a 0 -x {0.0 1.0 99 ------- null}
r -t 0.08392 -s 0 -d 1 -p cbr -e 210 -c 0 -i 43 -a 0 -x {0.0 1.0 43 ------- null}
+ -t 0.0839999999999999 -s 0 -d 1 -p cbr -e 210 -c 0 -i 100 -a 0 -x {0.0 1.0 100 ------- null}
d -t 0.0839999999999999 -s 0 -d 1 -p cbr -e 210 -c 0 -i 100 -a 0 -x {0.0 1.0 100 ------- null}
- -t 0.084 -s 0 -d 1 -p cbr -e 210 -c 0 -i 50 -a 0 -x {0.0 1.0 50 ------- null}
h -t 0.084 -s 0 -d 1 -p cbr -e 210 -c 0 -i 50 -a 0 -x {0.0 1.0 -1 ------- null}
+ -t 0.0848399999999999 -s 0 -d 1 -p cbr -e 210 -c 0 -i 101 -a 0 -x {0.0 1.0 101 ------- null}
r -t 0.0856 -s 0 -d 1 -p cbr -e 210 -c 0 -i 44 -a 0 -x {0.0 1.0 44 ------- null}
+ -t 0.0856799999999999 -s 0 -d 1 -p cbr -e 210 -c 0 -i 102 -a 0 -x {0.0 1.0 102 ------- null}
d -t 0.0856799999999999 -s 0 -d 1 -p cbr -e 210 -c 0 -i 102 -a 0 -x {0.0 1.0 102 ------- null}
- -t 0.08568 -s 0 -d 1 -p cbr -e 210 -c 0 -i 51 -a 0 -x {0.0 1.0 51 ------- null}
h -t 0.08568 -s 0 -d 1 -p cbr -e 210 -c 0 -i 51 -a 0 -x {0.0 1.0 -1 ------- null}
+ -t 0.0865199999999998 -s 0 -d 1 -p cbr -e 210 -c 0 -i 103 -a 0 -x {0.0 1.0 103 ------- null}
r -t 0.08728 -s 0 -d 1 -p cbr -e 210 -c 0 -i 45 -a 0 -x {0.0 1.0 45 ------- null}
+ -t 0.0873599999999998 -s 0 -d 1 -p cbr -e 210 -c 0 -i 104 -a 0 -x {0.0 1.0 104 ------- null}
d -t 0.0873599999999998 -s 0 -d 1 -p cbr -e 210 -c 0 -i 104 -a 0 -x {0.0 1.0 104 ------- null}
- -t 0.08736 -s 0 -d 1 -p cbr -e 210 -c 0 -i 52 -a 0 -x {0.0 1.0 52 ------- null}
h -t 0.08736 -s 0 -d 1 -p cbr -e 210 -c 0 -i 52 -a 0 -x {0.0 1.0 -1 ------- null}
+ -t 0.0881999999999998 -s 0 -d 1 -p cbr -e 210 -c 0 -i 105 -a 0 -x {0.0 1.0 105 ------- null}
r -t 0.08896 -s 0 -d 1 -p cbr -e 210 -c 0 -i 46 -a 0 -x {0.0 1.0 46 ------- null}
+ -t 0.0890399999999998 -s 0 -d 1 -p cbr -e 210 -c 0 -i 106 -a 0 -x {0.0 1.0 106 ------- null}
d -t 0.0890399999999998 -s 0 -d 1 -p cbr -e 210 -c 0 -i 106 -a 0 -x {0.0 1.0 106 ------- null}
- -t 0.08904 -s 0 -d 1 -p cbr -e 210 -c 0 -i 53 -a 0 -x {0.0 1.0 53 ------- null}
h -t 0.08904 -s 0 -d 1 -p cbr -e 210 -c 0 -i 53 -a 0 -x {0.0 1.0 -1 ------- null}
+ -t 0.0898799999999998 -s 0 -d 1 -p cbr -e 210 -c 0 -i 107 -a 0 -x {0.0 1.0 107 ------- null}
r -t 0.09064 -s 0 -d 1 -p cbr -e 210 -c 0 -i 47 -a 0 -x {0.0 1.0 47 ------- null}
+ -t 0.0907199999999998 -s 0 -d 1 -p cbr -e 210 -c 0 -i 108 -a 0 -x {0.0 1.0 108 ------- null}
d -t 0.0907199999999998 -s 0 -d 1 -p cbr -e 210 -c 0 -i 108 -a 0 -x {0.0 1.0 108 ------- null}
- -t 0.09072 -s 0 -d 1 -p cbr -e 210 -c 0 -i 54 -a 0 -x {0.0 1.0 54 ------- null}
h -t 0.09072 -s 0 -d 1 -p cbr -e 210 -c 0 -i 54 -a 0 -x {0.0 1.0 -1 ------- null}
+ -t 0.0915599999999998 -s 0 -d 1 -p cbr -e 210 -c 0 -i 109 -a 0 -x {0.0 1.0 109 ------- null}
r -t 0.09232 -s 0 -d 1 -p cbr -e 210 -c 0 -i 48 -a 0 -x {0.0 1.0 48 ------- null}
+ -t 0.0923999999999998 -s 0 -d 1 -p cbr -e 210 -c 0 -i 110 -a 0 -x {0.0 1.0 110 ------- null}
d -t 0.0923999999999998 -s 0 -d 1 -p cbr -e 210 -c 0 -i 110 -a 0 -x {0.0 1.0 110 ------- null}
- -t 0.0924 -s 0 -d 1 -p cbr -e 210 -c 0 -i 55 -a 0 -x {0.0 1.0 55 ------- null}
h -t 0.0924 -s 0 -d 1 -p cbr -e 210 -c 0 -i 55 -a 0 -x {0.0 1.0 -1 ------- null}
+ -t 0.0932399999999998 -s 0 -d 1 -p cbr -e 210 -c 0 -i 111 -a 0 -x {0.0 1.0 111 ------- null}
r -t 0.094 -s 0 -d 1 -p cbr -e 210 -c 0 -i 49 -a 0 -x {0.0 1.0 49 ------- null}
+ -t 0.0940799999999998 -s 0 -d 1 -p cbr -e 210 -c 0 -i 112 -a 0 -x {0.0 1.0 112 ------- null}
d -t 0.0940799999999998 -s 0 -d 1 -p cbr -e 210 -c 0 -i 112 -a 0 -x {0.0 1.0 112 ------- null}
- -t 0.09408 -s 0 -d 1 -p cbr -e 210 -c 0 -i 56 -a 0 -x {0.0 1.0 56 ------- null}
h -t 0.09408 -s 0 -d 1 -p cbr -e 210 -c 0 -i 56 -a 0 -x {0.0 1.0 -1 ------- null}
+ -t 0.0949199999999998 -s 0 -d 1 -p cbr -e 210 -c 0 -i 113 -a 0 -x {0.0 1.0 113 ------- null}
r -t 0.09568 -s 0 -d 1 -p cbr -e 210 -c 0 -i 50 -a 0 -x {0.0 1.0 50 ------- null}
+ -t 0.0957599999999998 -s 0 -d 1 -p cbr -e 210 -c 0 -i 114 -a 0 -x {0.0 1.0 114 ------- null}
d -t 0.0957599999999998 -s 0 -d 1 -p cbr -e 210 -c 0 -i 114 -a 0 -x {0.0 1.0 114 ------- null}
- -t 0.09576 -s 0 -d 1 -p cbr -e 210 -c 0 -i 57 -a 0 -x {0.0 1.0 57 ------- null}
h -t 0.09576 -s 0 -d 1 -p cbr -e 210 -c 0 -i 57 -a 0 -x {0.0 1.0 -1 ------- null}
+ -t 0.0965999999999998 -s 0 -d 1 -p cbr -e 210 -c 0 -i 115 -a 0 -x {0.0 1.0 115 ------- null}
r -t 0.09736 -s 0 -d 1 -p cbr -e 210 -c 0 -i 51 -a 0 -x {0.0 1.0 51 ------- null}
+ -t 0.0974399999999998 -s 0 -d 1 -p cbr -e 210 -c 0 -i 116 -a 0 -x {0.0 1.0 116 ------- null}
d -t 0.0974399999999998 -s 0 -d 1 -p cbr -e 210 -c 0 -i 116 -a 0 -x {0.0 1.0 116 ------- null}
- -t 0.09744 -s 0 -d 1 -p cbr -e 210 -c 0 -i 58 -a 0 -x {0.0 1.0 58 ------- null}
h -t 0.09744 -s 0 -d 1 -p cbr -e 210 -c 0 -i 58 -a 0 -x {0.0 1.0 -1 ------- null}
+ -t 0.0982799999999998 -s 0 -d 1 -p cbr -e 210 -c 0 -i 117 -a 0 -x {0.0 1.0 117 ------- null}
r -t 0.09904 -s 0 -d 1 -p cbr -e 210 -c 0 -i 52 -a 0 -x {0.0 1.0 52 ------- null}
+ -t 0.0991199999999997 -s 0 -d 1 -p cbr -e 210 -c 0 -i 118 -a 0 -x {0.0 1.0 118 ------- null}
d -t 0.0991199999999997 -s 0 -d 1 -p cbr -e 210 -c 0 -i 118 -a 0 -x {0.0 1.0 118 ------- null}
- -t 0.09912 -s 0 -d 1 -p cbr -e 210 -c 0 -i 59 -a 0 -x {0.0 1.0 59 ------- null}
h -t 0.09912 -s 0 -d 1 -p cbr -e 210 -c 0 -i 59 -a 0 -x {0.0 1.0 -1 ------- null}
+ -t 0.0999599999999997 -s 0 -d 1 -p cbr -e 210 -c 0 -i 119 -a 0 -x {0.0 1.0 119 ------- null}
r -t 0.10072 -s 0 -d 1 -p cbr -e 210 -c 0 -i 53 -a 0 -x {0.0 1.0 53 ------- null}
+ -t 0.1008 -s 0 -d 1 -p cbr -e 210 -c 0 -i 120 -a 0 -x {0.0 1.0 120 ------- null}
d -t 0.1008 -s 0 -d 1 -p cbr -e 210 -c 0 -i 120 -a 0 -x {0.0 1.0 120 ------- null}
- -t 0.1008 -s 0 -d 1 -p cbr -e 210 -c 0 -i 60 -a 0 -x {0.0 1.0 60 ------- null}
h -t 0.1008 -s 0 -d 1 -p cbr -e 210 -c 0 -i 60 -a 0 -x {0.0 1.0 -1 ------- null}
+ -t 0.10164 -s 0 -d 1 -p cbr -e 210 -c 0 -i 121 -a 0 -x {0.0 1.0 121 ------- null}
r -t 0.1024 -s 0 -d 1 -p cbr -e 210 -c 0 -i 54 -a 0 -x {0.0 1.0 54 ------- null}
+ -t 0.10248 -s 0 -d 1 -p cbr -e 210 -c 0 -i 122 -a 0 -x {0.0 1.0 122 ------- null}
d -t 0.10248 -s 0 -d 1 -p cbr -e 210 -c 0 -i 122 -a 0 -x {0.0 1.0 122 ------- null}
- -t 0.10248 -s 0 -d 1 -p cbr -e 210 -c 0 -i 61 -a 0 -x {0.0 1.0 61 ------- null}
h -t 0.10248 -s 0 -d 1 -p cbr -e 210 -c 0 -i 61 -a 0 -x {0.0 1.0 -1 ------- null}
+ -t 0.10332 -s 0 -d 1 -p cbr -e 210 -c 0 -i 123 -a 0 -x {0.0 1.0 123 ------- null}
r -t 0.10408 -s 0 -d 1 -p cbr -e 210 -c 0 -i 55 -a 0 -x {0.0 1.0 55 ------- null}
+ -t 0.10416 -s 0 -d 1 -p cbr -e 210 -c 0 -i 124 -a 0 -x {0.0 1.0 124 ------- null}
d -t 0.10416 -s 0 -d 1 -p cbr -e 210 -c 0 -i 124 -a 0 -x {0.0 1.0 124 ------- null}
- -t 0.10416 -s 0 -d 1 -p cbr -e 210 -c 0 -i 62 -a 0 -x {0.0 1.0 62 ------- null}
h -t 0.10416 -s 0 -d 1 -p cbr -e 210 -c 0 -i 62 -a 0 -x {0.0 1.0 -1 ------- null}
+ -t 0.105 -s 0 -d 1 -p cbr -e 210 -c 0 -i 125 -a 0 -x {0.0 1.0 125 ------- null}
r -t 0.10576 -s 0 -d 1 -p cbr -e 210 -c 0 -i 56 -a 0 -x {0.0 1.0 56 ------- null}
+ -t 0.10584 -s 0 -d 1 -p cbr -e 210 -c 0 -i 126 -a 0 -x {0.0 1.0 126 ------- null}
d -t 0.10584 -s 0 -d 1 -p cbr -e 210 -c 0 -i 126 -a 0 -x {0.0 1.0 126 ------- null}
- -t 0.10584 -s 0 -d 1 -p cbr -e 210 -c 0 -i 63 -a 0 -x {0.0 1.0 63 ------- null}
h -t 0.10584 -s 0 -d 1 -p cbr -e 210 -c 0 -i 63 -a 0 -x {0.0 1.0 -1 ------- null}
+ -t 0.10668 -s 0 -d 1 -p cbr -e 210 -c 0 -i 127 -a 0 -x {0.0 1.0 127 ------- null}
r -t 0.10744 -s 0 -d 1 -p cbr -e 210 -c 0 -i 57 -a 0 -x {0.0 1.0 57 ------- null}
+ -t 0.10752 -s 0 -d 1 -p cbr -e 210 -c 0 -i 128 -a 0 -x {0.0 1.0 128 ------- null}
d -t 0.10752 -s 0 -d 1 -p cbr -e 210 -c 0 -i 128 -a 0 -x {0.0 1.0 128 ------- null}
- -t 0.10752 -s 0 -d 1 -p cbr -e 210 -c 0 -i 64 -a 0 -x {0.0 1.0 64 ------- null}
h -t 0.10752 -s 0 -d 1 -p cbr -e 210 -c 0 -i 64 -a 0 -x {0.0 1.0 -1 ------- null}
+ -t 0.10836 -s 0 -d 1 -p cbr -e 210 -c 0 -i 129 -a 0 -x {0.0 1.0 129 ------- null}
r -t 0.10912 -s 0 -d 1 -p cbr -e 210 -c 0 -i 58 -a 0 -x {0.0 1.0 58 ------- null}
+ -t 0.1092 -s 0 -d 1 -p cbr -e 210 -c 0 -i 130 -a 0 -x {0.0 1.0 130 ------- null}
d -t 0.1092 -s 0 -d 1 -p cbr -e 210 -c 0 -i 130 -a 0 -x {0.0 1.0 130 ------- null}
- -t 0.1092 -s 0 -d 1 -p cbr -e 210 -c 0 -i 65 -a 0 -x {0.0 1.0 65 ------- null}
h -t 0.1092 -s 0 -d 1 -p cbr -e 210 -c 0 -i 65 -a 0 -x {0.0 1.0 -1 ------- null}
+ -t 0.11004 -s 0 -d 1 -p cbr -e 210 -c 0 -i 131 -a 0 -x {0.0 1.0 131 ------- null}
r -t 0.1108 -s 0 -d 1 -p cbr -e 210 -c 0 -i 59 -a 0 -x {0.0 1.0 59 ------- null}
+ -t 0.11088 -s 0 -d 1 -p cbr -e 210 -c 0 -i 132 -a 0 -x {0.0 1.0 132 ------- null}
d -t 0.11088 -s 0 -d 1 -p cbr -e 210 -c 0 -i 132 -a 0 -x {0.0 1.0 132 ------- null}
- -t 0.11088 -s 0 -d 1 -p cbr -e 210 -c 0 -i 66 -a 0 -x {0.0 1.0 66 ------- null}
h -t 0.11088 -s 0 -d 1 -p cbr -e 210 -c 0 -i 66 -a 0 -x {0.0 1.0 -1 ------- null}
+ -t 0.11172 -s 0 -d 1 -p cbr -e 210 -c 0 -i 133 -a 0 -x {0.0 1.0 133 ------- null}
r -t 0.11248 -s 0 -d 1 -p cbr -e 210 -c 0 -i 60 -a 0 -x {0.0 1.0 60 ------- null}
+ -t 0.11256 -s 0 -d 1 -p cbr -e 210 -c 0 -i 134 -a 0 -x {0.0 1.0 134 ------- null}
d -t 0.11256 -s 0 -d 1 -p cbr -e 210 -c 0 -i 134 -a 0 -x {0.0 1.0 134 ------- null}
- -t 0.11256 -s 0 -d 1 -p cbr -e 210 -c 0 -i 67 -a 0 -x {0.0 1.0 67 ------- null}
h -t 0.11256 -s 0 -d 1 -p cbr -e 210 -c 0 -i 67 -a 0 -x {0.0 1.0 -1 ------- null}
+ -t 0.1134 -s 0 -d 1 -p cbr -e 210 -c 0 -i 135 -a 0 -x {0.0 1.0 135 ------- null}
r -t 0.11416 -s 0 -d 1 -p cbr -e 210 -c 0 -i 61 -a 0 -x {0.0 1.0 61 ------- null}
+ -t 0.11424 -s 0 -d 1 -p cbr -e 210 -c 0 -i 136 -a 0 -x {0.0 1.0 136 ------- null}
d -t 0.11424 -s 0 -d 1 -p cbr -e 210 -c 0 -i 136 -a 0 -x {0.0 1.0 136 ------- null}
- -t 0.11424 -s 0 -d 1 -p cbr -e 210 -c 0 -i 68 -a 0 -x {0.0 1.0 68 ------- null}