+ 0.5 0 2 poisson 1500 ------- 1 0.0 3.0 0 0
- 0.5 0 2 poisson 1500 ------- 1 0.0 3.0 0 0
r 0.522 0 2 poisson 1500 ------- 1 0.0 3.0 0 0
+ 0.522 2 3 poisson 1500 ------- 1 0.0 3.0 0 0
- 0.522 2 3 poisson 1500 ------- 1 0.0 3.0 0 0
r 0.544 2 3 poisson 1500 ------- 1 0.0 3.0 0 0
+ 0.595854 0 2 poisson 1500 ------- 1 0.0 3.0 1 1
- 0.595854 0 2 poisson 1500 ------- 1 0.0 3.0 1 1
+ 0.6029 0 2 poisson 1500 ------- 1 0.0 3.0 2 2
- 0.607854 0 2 poisson 1500 ------- 1 0.0 3.0 2 2
r 0.617854 0 2 poisson 1500 ------- 1 0.0 3.0 1 1
+ 0.617854 2 3 poisson 1500 ------- 1 0.0 3.0 1 1
- 0.617854 2 3 poisson 1500 ------- 1 0.0 3.0 1 1
r 0.629854 0 2 poisson 1500 ------- 1 0.0 3.0 2 2
+ 0.629854 2 3 poisson 1500 ------- 1 0.0 3.0 2 2
- 0.629854 2 3 poisson 1500 ------- 1 0.0 3.0 2 2
r 0.639854 2 3 poisson 1500 ------- 1 0.0 3.0 1 1
r 0.651854 2 3 poisson 1500 ------- 1 0.0 3.0 2 2
+ 0.65395 0 2 poisson 1500 ------- 1 0.0 3.0 3 3
- 0.65395 0 2 poisson 1500 ------- 1 0.0 3.0 3 3
r 0.67595 0 2 poisson 1500 ------- 1 0.0 3.0 3 3
+ 0.67595 2 3 poisson 1500 ------- 1 0.0 3.0 3 3
- 0.67595 2 3 poisson 1500 ------- 1 0.0 3.0 3 3
+ 0.683099 0 2 poisson 1500 ------- 1 0.0 3.0 4 4
- 0.683099 0 2 poisson 1500 ------- 1 0.0 3.0 4 4
+ 0.692918 0 2 poisson 1500 ------- 1 0.0 3.0 5 5
- 0.695099 0 2 poisson 1500 ------- 1 0.0 3.0 5 5
+ 0.695609 0 2 poisson 1500 ------- 1 0.0 3.0 6 6
r 0.69795 2 3 poisson 1500 ------- 1 0.0 3.0 3 3
r 0.705099 0 2 poisson 1500 ------- 1 0.0 3.0 4 4
+ 0.705099 2 3 poisson 1500 ------- 1 0.0 3.0 4 4
- 0.705099 2 3 poisson 1500 ------- 1 0.0 3.0 4 4
- 0.707099 0 2 poisson 1500 ------- 1 0.0 3.0 6 6
+ 0.709549 0 2 poisson 1500 ------- 1 0.0 3.0 7 7
+ 0.711982 0 2 poisson 1500 ------- 1 0.0 3.0 8 8
r 0.717099 0 2 poisson 1500 ------- 1 0.0 3.0 5 5
+ 0.717099 2 3 poisson 1500 ------- 1 0.0 3.0 5 5
- 0.717099 2 3 poisson 1500 ------- 1 0.0 3.0 5 5
- 0.719099 0 2 poisson 1500 ------- 1 0.0 3.0 7 7
r 0.727099 2 3 poisson 1500 ------- 1 0.0 3.0 4 4
r 0.729099 0 2 poisson 1500 ------- 1 0.0 3.0 6 6
+ 0.729099 2 3 poisson 1500 ------- 1 0.0 3.0 6 6
- 0.729099 2 3 poisson 1500 ------- 1 0.0 3.0 6 6
+ 0.72938 0 2 poisson 1500 ------- 1 0.0 3.0 9 9
- 0.731099 0 2 poisson 1500 ------- 1 0.0 3.0 8 8
+ 0.734757 0 2 poisson 1500 ------- 1 0.0 3.0 10 10
r 0.739099 2 3 poisson 1500 ------- 1 0.0 3.0 5 5
r 0.741099 0 2 poisson 1500 ------- 1 0.0 3.0 7 7
+ 0.741099 2 3 poisson 1500 ------- 1 0.0 3.0 7 7
- 0.741099 2 3 poisson 1500 ------- 1 0.0 3.0 7 7
- 0.743099 0 2 poisson 1500 ------- 1 0.0 3.0 9 9
+ 0.748847 0 2 poisson 1500 ------- 1 0.0 3.0 11 11
+ 0.750992 0 2 poisson 1500 ------- 1 0.0 3.0 12 12
r 0.751099 2 3 poisson 1500 ------- 1 0.0 3.0 6 6
r 0.753099 0 2 poisson 1500 ------- 1 0.0 3.0 8 8
+ 0.753099 2 3 poisson 1500 ------- 1 0.0 3.0 8 8
- 0.753099 2 3 poisson 1500 ------- 1 0.0 3.0 8 8
- 0.755099 0 2 poisson 1500 ------- 1 0.0 3.0 10 10
r 0.763099 2 3 poisson 1500 ------- 1 0.0 3.0 7 7
r 0.765099 0 2 poisson 1500 ------- 1 0.0 3.0 9 9
+ 0.765099 2 3 poisson 1500 ------- 1 0.0 3.0 9 9
- 0.765099 2 3 poisson 1500 ------- 1 0.0 3.0 9 9
- 0.767099 0 2 poisson 1500 ------- 1 0.0 3.0 11 11
+ 0.772676 0 2 poisson 1500 ------- 1 0.0 3.0 13 13
r 0.775099 2 3 poisson 1500 ------- 1 0.0 3.0 8 8
r 0.777099 0 2 poisson 1500 ------- 1 0.0 3.0 10 10
+ 0.777099 2 3 poisson 1500 ------- 1 0.0 3.0 10 10
- 0.777099 2 3 poisson 1500 ------- 1 0.0 3.0 10 10
- 0.779099 0 2 poisson 1500 ------- 1 0.0 3.0 12 12
r 0.787099 2 3 poisson 1500 ------- 1 0.0 3.0 9 9
r 0.789099 0 2 poisson 1500 ------- 1 0.0 3.0 11 11
+ 0.789099 2 3 poisson 1500 ------- 1 0.0 3.0 11 11
- 0.789099 2 3 poisson 1500 ------- 1 0.0 3.0 11 11
- 0.791099 0 2 poisson 1500 ------- 1 0.0 3.0 13 13
r 0.799099 2 3 poisson 1500 ------- 1 0.0 3.0 10 10
r 0.801099 0 2 poisson 1500 ------- 1 0.0 3.0 12 12
+ 0.801099 2 3 poisson 1500 ------- 1 0.0 3.0 12 12
- 0.801099 2 3 poisson 1500 ------- 1 0.0 3.0 12 12
+ 0.810492 0 2 poisson 1500 ------- 1 0.0 3.0 14 14
- 0.810492 0 2 poisson 1500 ------- 1 0.0 3.0 14 14
r 0.811099 2 3 poisson 1500 ------- 1 0.0 3.0 11 11
r 0.813099 0 2 poisson 1500 ------- 1 0.0 3.0 13 13
+ 0.813099 2 3 poisson 1500 ------- 1 0.0 3.0 13 13
- 0.813099 2 3 poisson 1500 ------- 1 0.0 3.0 13 13
+ 0.815846 0 2 poisson 1500 ------- 1 0.0 3.0 15 15
- 0.822492 0 2 poisson 1500 ------- 1 0.0 3.0 15 15
r 0.823099 2 3 poisson 1500 ------- 1 0.0 3.0 12 12
r 0.832492 0 2 poisson 1500 ------- 1 0.0 3.0 14 14
+ 0.832492 2 3 poisson 1500 ------- 1 0.0 3.0 14 14
- 0.832492 2 3 poisson 1500 ------- 1 0.0 3.0 14 14
r 0.835099 2 3 poisson 1500 ------- 1 0.0 3.0 13 13
+ 0.841925 0 2 poisson 1500 ------- 1 0.0 3.0 16 16
- 0.841925 0 2 poisson 1500 ------- 1 0.0 3.0 16 16
+ 0.843739 0 2 poisson 1500 ------- 1 0.0 3.0 17 17
r 0.844492 0 2 poisson 1500 ------- 1 0.0 3.0 15 15
+ 0.844492 2 3 poisson 1500 ------- 1 0.0 3.0 15 15
- 0.844492 2 3 poisson 1500 ------- 1 0.0 3.0 15 15
- 0.853925 0 2 poisson 1500 ------- 1 0.0 3.0 17 17
+ 0.854045 0 2 poisson 1500 ------- 1 0.0 3.0 18 18
r 0.854492 2 3 poisson 1500 ------- 1 0.0 3.0 14 14
r 0.863925 0 2 poisson 1500 ------- 1 0.0 3.0 16 16
+ 0.863925 2 3 poisson 1500 ------- 1 0.0 3.0 16 16
- 0.863925 2 3 poisson 1500 ------- 1 0.0 3.0 16 16
- 0.865925 0 2 poisson 1500 ------- 1 0.0 3.0 18 18
r 0.866492 2 3 poisson 1500 ------- 1 0.0 3.0 15 15
+ 0.874974 0 2 poisson 1500 ------- 1 0.0 3.0 19 19
r 0.875925 0 2 poisson 1500 ------- 1 0.0 3.0 17 17
+ 0.875925 2 3 poisson 1500 ------- 1 0.0 3.0 17 17
- 0.875925 2 3 poisson 1500 ------- 1 0.0 3.0 17 17
- 0.877925 0 2 poisson 1500 ------- 1 0.0 3.0 19 19
r 0.885925 2 3 poisson 1500 ------- 1 0.0 3.0 16 16
r 0.887925 0 2 poisson 1500 ------- 1 0.0 3.0 18 18
+ 0.887925 2 3 poisson 1500 ------- 1 0.0 3.0 18 18
- 0.887925 2 3 poisson 1500 ------- 1 0.0 3.0 18 18
r 0.897925 2 3 poisson 1500 ------- 1 0.0 3.0 17 17
r 0.899925 0 2 poisson 1500 ------- 1 0.0 3.0 19 19
+ 0.899925 2 3 poisson 1500 ------- 1 0.0 3.0 19 19
- 0.899925 2 3 poisson 1500 ------- 1 0.0 3.0 19 19
+ 0.90333 0 2 poisson 1500 ------- 1 0.0 3.0 20 20
- 0.90333 0 2 poisson 1500 ------- 1 0.0 3.0 20 20
+ 0.905902 0 2 poisson 1500 ------- 1 0.0 3.0 21 21
r 0.909925 2 3 poisson 1500 ------- 1 0.0 3.0 18 18
- 0.91533 0 2 poisson 1500 ------- 1 0.0 3.0 21 21
+ 0.918544 0 2 poisson 1500 ------- 1 0.0 3.0 22 22
r 0.921925 2 3 poisson 1500 ------- 1 0.0 3.0 19 19
r 0.92533 0 2 poisson 1500 ------- 1 0.0 3.0 20 20
+ 0.92533 2 3 poisson 1500 ------- 1 0.0 3.0 20 20
- 0.92533 2 3 poisson 1500 ------- 1 0.0 3.0 20 20
- 0.92733 0 2 poisson 1500 ------- 1 0.0 3.0 22 22
+ 0.934797 0 2 poisson 1500 ------- 1 0.0 3.0 23 23
r 0.93733 0 2 poisson 1500 ------- 1 0.0 3.0 21 21
+ 0.93733 2 3 poisson 1500 ------- 1 0.0 3.0 21 21
- 0.93733 2 3 poisson 1500 ------- 1 0.0 3.0 21 21
- 0.93933 0 2 poisson 1500 ------- 1 0.0 3.0 23 23
+ 0.945535 0 2 poisson 1500 ------- 1 0.0 3.0 24 24
r 0.94733 2 3 poisson 1500 ------- 1 0.0 3.0 20 20
r 0.94933 0 2 poisson 1500 ------- 1 0.0 3.0 22 22
+ 0.94933 2 3 poisson 1500 ------- 1 0.0 3.0 22 22
- 0.94933 2 3 poisson 1500 ------- 1 0.0 3.0 22 22
- 0.95133 0 2 poisson 1500 ------- 1 0.0 3.0 24 24
+ 0.953413 0 2 poisson 1500 ------- 1 0.0 3.0 25 25
r 0.95933 2 3 poisson 1500 ------- 1 0.0 3.0 21 21
r 0.96133 0 2 poisson 1500 ------- 1 0.0 3.0 23 23
+ 0.96133 2 3 poisson 1500 ------- 1 0.0 3.0 23 23
- 0.96133 2 3 poisson 1500 ------- 1 0.0 3.0 23 23
+ 0.962573 0 2 poisson 1500 ------- 1 0.0 3.0 26 26
- 0.96333 0 2 poisson 1500 ------- 1 0.0 3.0 25 25
+ 0.966986 0 2 poisson 1500 ------- 1 0.0 3.0 27 27
+ 0.968767 0 2 poisson 1500 ------- 1 0.0 3.0 28 28
+ 0.970861 0 2 poisson 1500 ------- 1 0.0 3.0 29 29
r 0.97133 2 3 poisson 1500 ------- 1 0.0 3.0 22 22
r 0.97333 0 2 poisson 1500 ------- 1 0.0 3.0 24 24
+ 0.97333 2 3 poisson 1500 ------- 1 0.0 3.0 24 24
- 0.97333 2 3 poisson 1500 ------- 1 0.0 3.0 24 24
- 0.97533 0 2 poisson 1500 ------- 1 0.0 3.0 26 26
r 0.98333 2 3 poisson 1500 ------- 1 0.0 3.0 23 23
r 0.98533 0 2 poisson 1500 ------- 1 0.0 3.0 25 25
+ 0.98533 2 3 poisson 1500 ------- 1 0.0 3.0 25 25
- 0.98533 2 3 poisson 1500 ------- 1 0.0 3.0 25 25
- 0.98733 0 2 poisson 1500 ------- 1 0.0 3.0 27 27
+ 0.989187 0 2 poisson 1500 ------- 1 0.0 3.0 30 30
r 0.99533 2 3 poisson 1500 ------- 1 0.0 3.0 24 24
r 0.99733 0 2 poisson 1500 ------- 1 0.0 3.0 26 26
+ 0.99733 2 3 poisson 1500 ------- 1 0.0 3.0 26 26
- 0.99733 2 3 poisson 1500 ------- 1 0.0 3.0 26 26
- 0.99933 0 2 poisson 1500 ------- 1 0.0 3.0 28 28
+ 1 1 2 cbr 500 ------- 2 1.0 3.0 0 31
- 1 1 2 cbr 500 ------- 2 1.0 3.0 0 31
+ 1.005 1 2 cbr 500 ------- 2 1.0 3.0 1 32
- 1.005 1 2 cbr 500 ------- 2 1.0 3.0 1 32
+ 1.006251 0 2 poisson 1500 ------- 1 0.0 3.0 31 33
r 1.00733 2 3 poisson 1500 ------- 1 0.0 3.0 25 25
+ 1.008186 0 2 poisson 1500 ------- 1 0.0 3.0 32 34
r 1.00933 0 2 poisson 1500 ------- 1 0.0 3.0 27 27
+ 1.00933 2 3 poisson 1500 ------- 1 0.0 3.0 27 27
- 1.00933 2 3 poisson 1500 ------- 1 0.0 3.0 27 27
+ 1.01 1 2 cbr 500 ------- 2 1.0 3.0 2 35
- 1.01 1 2 cbr 500 ------- 2 1.0 3.0 2 35
- 1.01133 0 2 poisson 1500 ------- 1 0.0 3.0 29 29
+ 1.012861 0 2 poisson 1500 ------- 1 0.0 3.0 33 36
r 1.014 1 2 cbr 500 ------- 2 1.0 3.0 0 31
+ 1.014 2 3 cbr 500 ------- 2 1.0 3.0 0 31
+ 1.015 1 2 cbr 500 ------- 2 1.0 3.0 3 37
- 1.015 1 2 cbr 500 ------- 2 1.0 3.0 3 37
+ 1.016119 0 2 poisson 1500 ------- 1 0.0 3.0 34 38
+ 1.017317 0 2 poisson 1500 ------- 1 0.0 3.0 35 39
r 1.019 1 2 cbr 500 ------- 2 1.0 3.0 1 32
+ 1.019 2 3 cbr 500 ------- 2 1.0 3.0 1 32
r 1.01933 2 3 poisson 1500 ------- 1 0.0 3.0 26 26
+ 1.02 1 2 cbr 500 ------- 2 1.0 3.0 4 40
- 1.02 1 2 cbr 500 ------- 2 1.0 3.0 4 40
r 1.02133 0 2 poisson 1500 ------- 1 0.0 3.0 28 28
+ 1.02133 2 3 poisson 1500 ------- 1 0.0 3.0 28 28
- 1.02133 2 3 cbr 500 ------- 2 1.0 3.0 0 31
- 1.02333 0 2 poisson 1500 ------- 1 0.0 3.0 30 30
r 1.024 1 2 cbr 500 ------- 2 1.0 3.0 2 35
+ 1.024 2 3 cbr 500 ------- 2 1.0 3.0 2 35
+ 1.025 1 2 cbr 500 ------- 2 1.0 3.0 5 41
- 1.025 1 2 cbr 500 ------- 2 1.0 3.0 5 41
- 1.02533 2 3 poisson 1500 ------- 1 0.0 3.0 28 28
+ 1.028148 0 2 poisson 1500 ------- 1 0.0 3.0 36 42
r 1.029 1 2 cbr 500 ------- 2 1.0 3.0 3 37
+ 1.029 2 3 cbr 500 ------- 2 1.0 3.0 3 37
+ 1.03 1 2 cbr 500 ------- 2 1.0 3.0 6 43
- 1.03 1 2 cbr 500 ------- 2 1.0 3.0 6 43
r 1.03133 2 3 poisson 1500 ------- 1 0.0 3.0 27 27
r 1.03333 0 2 poisson 1500 ------- 1 0.0 3.0 29 29
+ 1.03333 2 3 poisson 1500 ------- 1 0.0 3.0 29 29
r 1.034 1 2 cbr 500 ------- 2 1.0 3.0 4 40
+ 1.034 2 3 cbr 500 ------- 2 1.0 3.0 4 40
+ 1.035 1 2 cbr 500 ------- 2 1.0 3.0 7 44
- 1.035 1 2 cbr 500 ------- 2 1.0 3.0 7 44
r 1.03533 2 3 cbr 500 ------- 2 1.0 3.0 0 31
- 1.03533 0 2 poisson 1500 ------- 1 0.0 3.0 31 33
- 1.03733 2 3 cbr 500 ------- 2 1.0 3.0 1 32
r 1.039 1 2 cbr 500 ------- 2 1.0 3.0 5 41
+ 1.039 2 3 cbr 500 ------- 2 1.0 3.0 5 41
+ 1.04 1 2 cbr 500 ------- 2 1.0 3.0 8 45
- 1.04 1 2 cbr 500 ------- 2 1.0 3.0 8 45
- 1.04133 2 3 poisson 1500 ------- 1 0.0 3.0 29 29
r 1.044 1 2 cbr 500 ------- 2 1.0 3.0 6 43
+ 1.044 2 3 cbr 500 ------- 2 1.0 3.0 6 43
+ 1.045 1 2 cbr 500 ------- 2 1.0 3.0 9 46
- 1.045 1 2 cbr 500 ------- 2 1.0 3.0 9 46
r 1.04533 0 2 poisson 1500 ------- 1 0.0 3.0 30 30
+ 1.04533 2 3 poisson 1500 ------- 1 0.0 3.0 30 30
r 1.04733 2 3 poisson 1500 ------- 1 0.0 3.0 28 28
- 1.04733 0 2 poisson 1500 ------- 1 0.0 3.0 32 34
r 1.049 1 2 cbr 500 ------- 2 1.0 3.0 7 44
+ 1.049 2 3 cbr 500 ------- 2 1.0 3.0 7 44
+ 1.05 1 2 cbr 500 ------- 2 1.0 3.0 10 47
- 1.05 1 2 cbr 500 ------- 2 1.0 3.0 10 47
r 1.05133 2 3 cbr 500 ------- 2 1.0 3.0 1 32
- 1.05333 2 3 cbr 500 ------- 2 1.0 3.0 2 35
r 1.054 1 2 cbr 500 ------- 2 1.0 3.0 8 45
+ 1.054 2 3 cbr 500 ------- 2 1.0 3.0 8 45
+ 1.054723 0 2 poisson 1500 ------- 1 0.0 3.0 37 48
+ 1.055 1 2 cbr 500 ------- 2 1.0 3.0 11 49
- 1.055 1 2 cbr 500 ------- 2 1.0 3.0 11 49
r 1.05733 0 2 poisson 1500 ------- 1 0.0 3.0 31 33
+ 1.05733 2 3 poisson 1500 ------- 1 0.0 3.0 31 33
- 1.05733 2 3 poisson 1500 ------- 1 0.0 3.0 30 30
r 1.059 1 2 cbr 500 ------- 2 1.0 3.0 9 46
+ 1.059 2 3 cbr 500 ------- 2 1.0 3.0 9 46
- 1.05933 0 2 poisson 1500 ------- 1 0.0 3.0 33 36
+ 1.06 1 2 cbr 500 ------- 2 1.0 3.0 12 50
- 1.06 1 2 cbr 500 ------- 2 1.0 3.0 12 50
r 1.06333 2 3 poisson 1500 ------- 1 0.0 3.0 29 29
r 1.064 1 2 cbr 500 ------- 2 1.0 3.0 10 47
+ 1.064 2 3 cbr 500 ------- 2 1.0 3.0 10 47
+ 1.065 1 2 cbr 500 ------- 2 1.0 3.0 13 51
- 1.065 1 2 cbr 500 ------- 2 1.0 3.0 13 51
+ 1.065593 0 2 poisson 1500 ------- 1 0.0 3.0 38 52
r 1.06733 2 3 cbr 500 ------- 2 1.0 3.0 2 35
r 1.069 1 2 cbr 500 ------- 2 1.0 3.0 11 49
+ 1.069 2 3 cbr 500 ------- 2 1.0 3.0 11 49
r 1.06933 0 2 poisson 1500 ------- 1 0.0 3.0 32 34
+ 1.06933 2 3 poisson 1500 ------- 1 0.0 3.0 32 34
- 1.06933 2 3 cbr 500 ------- 2 1.0 3.0 3 37
+ 1.07 1 2 cbr 500 ------- 2 1.0 3.0 14 53
- 1.07 1 2 cbr 500 ------- 2 1.0 3.0 14 53
- 1.07133 0 2 poisson 1500 ------- 1 0.0 3.0 34 38
- 1.07333 2 3 poisson 1500 ------- 1 0.0 3.0 31 33
r 1.074 1 2 cbr 500 ------- 2 1.0 3.0 12 50
+ 1.074 2 3 cbr 500 ------- 2 1.0 3.0 12 50
+ 1.075 1 2 cbr 500 ------- 2 1.0 3.0 15 54
- 1.075 1 2 cbr 500 ------- 2 1.0 3.0 15 54
r 1.079 1 2 cbr 500 ------- 2 1.0 3.0 13 51
+ 1.079 2 3 cbr 500 ------- 2 1.0 3.0 13 51
r 1.07933 2 3 poisson 1500 ------- 1 0.0 3.0 30 30
+ 1.08 1 2 cbr 500 ------- 2 1.0 3.0 16 55
- 1.08 1 2 cbr 500 ------- 2 1.0 3.0 16 55
r 1.08133 0 2 poisson 1500 ------- 1 0.0 3.0 33 36
+ 1.08133 2 3 poisson 1500 ------- 1 0.0 3.0 33 36
r 1.08333 2 3 cbr 500 ------- 2 1.0 3.0 3 37
- 1.08333 0 2 poisson 1500 ------- 1 0.0 3.0 35 39
r 1.084 1 2 cbr 500 ------- 2 1.0 3.0 14 53
+ 1.084 2 3 cbr 500 ------- 2 1.0 3.0 14 53
+ 1.085 1 2 cbr 500 ------- 2 1.0 3.0 17 56
- 1.085 1 2 cbr 500 ------- 2 1.0 3.0 17 56
- 1.08533 2 3 cbr 500 ------- 2 1.0 3.0 4 40
+ 1.08569 0 2 poisson 1500 ------- 1 0.0 3.0 39 57
+ 1.087122 0 2 poisson 1500 ------- 1 0.0 3.0 40 58
+ 1.087785 0 2 poisson 1500 ------- 1 0.0 3.0 41 59
r 1.089 1 2 cbr 500 ------- 2 1.0 3.0 15 54
+ 1.089 2 3 cbr 500 ------- 2 1.0 3.0 15 54
+ 1.089166 0 2 poisson 1500 ------- 1 0.0 3.0 42 60
- 1.08933 2 3 poisson 1500 ------- 1 0.0 3.0 32 34
+ 1.09 1 2 cbr 500 ------- 2 1.0 3.0 18 61
- 1.09 1 2 cbr 500 ------- 2 1.0 3.0 18 61
r 1.09333 0 2 poisson 1500 ------- 1 0.0 3.0 34 38
+ 1.09333 2 3 poisson 1500 ------- 1 0.0 3.0 34 38
r 1.094 1 2 cbr 500 ------- 2 1.0 3.0 16 55
+ 1.094 2 3 cbr 500 ------- 2 1.0 3.0 16 55
+ 1.095 1 2 cbr 500 ------- 2 1.0 3.0 19 62
- 1.095 1 2 cbr 500 ------- 2 1.0 3.0 19 62
r 1.09533 2 3 poisson 1500 ------- 1 0.0 3.0 31 33
- 1.09533 0 2 poisson 1500 ------- 1 0.0 3.0 36 42
r 1.099 1 2 cbr 500 ------- 2 1.0 3.0 17 56
+ 1.099 2 3 cbr 500 ------- 2 1.0 3.0 17 56
r 1.09933 2 3 cbr 500 ------- 2 1.0 3.0 4 40
+ 1.1 1 2 cbr 500 ------- 2 1.0 3.0 20 63
- 1.1 1 2 cbr 500 ------- 2 1.0 3.0 20 63
- 1.10133 2 3 cbr 500 ------- 2 1.0 3.0 5 41
r 1.104 1 2 cbr 500 ------- 2 1.0 3.0 18 61
+ 1.104 2 3 cbr 500 ------- 2 1.0 3.0 18 61
+ 1.105 1 2 cbr 500 ------- 2 1.0 3.0 21 64
- 1.105 1 2 cbr 500 ------- 2 1.0 3.0 21 64
r 1.10533 0 2 poisson 1500 ------- 1 0.0 3.0 35 39
+ 1.10533 2 3 poisson 1500 ------- 1 0.0 3.0 35 39
- 1.10533 2 3 poisson 1500 ------- 1 0.0 3.0 33 36
- 1.10733 0 2 poisson 1500 ------- 1 0.0 3.0 37 48
r 1.109 1 2 cbr 500 ------- 2 1.0 3.0 19 62
+ 1.109 2 3 cbr 500 ------- 2 1.0 3.0 19 62
d 1.109 2 3 cbr 500 ------- 2 1.0 3.0 19 62
+ 1.11 1 2 cbr 500 ------- 2 1.0 3.0 22 65
- 1.11 1 2 cbr 500 ------- 2 1.0 3.0 22 65
r 1.11133 2 3 poisson 1500 ------- 1 0.0 3.0 32 34
r 1.114 1 2 cbr 500 ------- 2 1.0 3.0 20 63
+ 1.114 2 3 cbr 500 ------- 2 1.0 3.0 20 63
d 1.114 2 3 cbr 500 ------- 2 1.0 3.0 20 63
+ 1.115 1 2 cbr 500 ------- 2 1.0 3.0 23 66
- 1.115 1 2 cbr 500 ------- 2 1.0 3.0 23 66
r 1.11533 2 3 cbr 500 ------- 2 1.0 3.0 5 41
+ 1.115433 0 2 poisson 1500 ------- 1 0.0 3.0 43 67
r 1.11733 0 2 poisson 1500 ------- 1 0.0 3.0 36 42
+ 1.11733 2 3 poisson 1500 ------- 1 0.0 3.0 36 42
- 1.11733 2 3 cbr 500 ------- 2 1.0 3.0 6 43
r 1.119 1 2 cbr 500 ------- 2 1.0 3.0 21 64
+ 1.119 2 3 cbr 500 ------- 2 1.0 3.0 21 64
d 1.119 2 3 cbr 500 ------- 2 1.0 3.0 21 64
- 1.11933 0 2 poisson 1500 ------- 1 0.0 3.0 38 52
+ 1.12 1 2 cbr 500 ------- 2 1.0 3.0 24 68
- 1.12 1 2 cbr 500 ------- 2 1.0 3.0 24 68
- 1.12133 2 3 poisson 1500 ------- 1 0.0 3.0 34 38
r 1.124 1 2 cbr 500 ------- 2 1.0 3.0 22 65
+ 1.124 2 3 cbr 500 ------- 2 1.0 3.0 22 65
+ 1.125 1 2 cbr 500 ------- 2 1.0 3.0 25 69
- 1.125 1 2 cbr 500 ------- 2 1.0 3.0 25 69
r 1.12733 2 3 poisson 1500 ------- 1 0.0 3.0 33 36
r 1.129 1 2 cbr 500 ------- 2 1.0 3.0 23 66
+ 1.129 2 3 cbr 500 ------- 2 1.0 3.0 23 66
d 1.129 2 3 cbr 500 ------- 2 1.0 3.0 23 66
r 1.12933 0 2 poisson 1500 ------- 1 0.0 3.0 37 48
+ 1.12933 2 3 poisson 1500 ------- 1 0.0 3.0 37 48
+ 1.13 1 2 cbr 500 ------- 2 1.0 3.0 26 70
- 1.13 1 2 cbr 500 ------- 2 1.0 3.0 26 70
r 1.13133 2 3 cbr 500 ------- 2 1.0 3.0 6 43
- 1.13133 0 2 poisson 1500 ------- 1 0.0 3.0 39 57
- 1.13333 2 3 cbr 500 ------- 2 1.0 3.0 7 44
r 1.134 1 2 cbr 500 ------- 2 1.0 3.0 24 68
+ 1.134 2 3 cbr 500 ------- 2 1.0 3.0 24 68
d 1.134 2 3 cbr 500 ------- 2 1.0 3.0 24 68
+ 1.135 1 2 cbr 500 ------- 2 1.0 3.0 27 71
- 1.135 1 2 cbr 500 ------- 2 1.0 3.0 27 71
- 1.13733 2 3 poisson 1500 ------- 1 0.0 3.0 35 39
r 1.139 1 2 cbr 500 ------- 2 1.0 3.0 25 69
+ 1.139 2 3 cbr 500 ------- 2 1.0 3.0 25 69
+ 1.14 1 2 cbr 500 ------- 2 1.0 3.0 28 72
- 1.14 1 2 cbr 500 ------- 2 1.0 3.0 28 72
r 1.14133 0 2 poisson 1500 ------- 1 0.0 3.0 38 52
+ 1.14133 2 3 poisson 1500 ------- 1 0.0 3.0 38 52
r 1.14333 2 3 poisson 1500 ------- 1 0.0 3.0 34 38
- 1.14333 0 2 poisson 1500 ------- 1 0.0 3.0 40 58
r 1.144 1 2 cbr 500 ------- 2 1.0 3.0 26 70
+ 1.144 2 3 cbr 500 ------- 2 1.0 3.0 26 70
d 1.144 2 3 cbr 500 ------- 2 1.0 3.0 26 70
+ 1.145 1 2 cbr 500 ------- 2 1.0 3.0 29 73
- 1.145 1 2 cbr 500 ------- 2 1.0 3.0 29 73
r 1.14733 2 3 cbr 500 ------- 2 1.0 3.0 7 44
r 1.149 1 2 cbr 500 ------- 2 1.0 3.0 27 71
+ 1.149 2 3 cbr 500 ------- 2 1.0 3.0 27 71
d 1.149 2 3 cbr 500 ------- 2 1.0 3.0 27 71
- 1.14933 2 3 cbr 500 ------- 2 1.0 3.0 8 45
+ 1.149518 0 2 poisson 1500 ------- 1 0.0 3.0 44 74
+ 1.15 1 2 cbr 500 ------- 2 1.0 3.0 30 75
- 1.15 1 2 cbr 500 ------- 2 1.0 3.0 30 75
r 1.15333 0 2 poisson 1500 ------- 1 0.0 3.0 39 57
+ 1.15333 2 3 poisson 1500 ------- 1 0.0 3.0 39 57
- 1.15333 2 3 poisson 1500 ------- 1 0.0 3.0 36 42
r 1.154 1 2 cbr 500 ------- 2 1.0 3.0 28 72
+ 1.154 2 3 cbr 500 ------- 2 1.0 3.0 28 72
d 1.154 2 3 cbr 500 ------- 2 1.0 3.0 28 72
+ 1.155 1 2 cbr 500 ------- 2 1.0 3.0 31 76
- 1.155 1 2 cbr 500 ------- 2 1.0 3.0 31 76
- 1.15533 0 2 poisson 1500 ------- 1 0.0 3.0 41 59
r 1.159 1 2 cbr 500 ------- 2 1.0 3.0 29 73
+ 1.159 2 3 cbr 500 ------- 2 1.0 3.0 29 73
d 1.159 2 3 cbr 500 ------- 2 1.0 3.0 29 73
r 1.15933 2 3 poisson 1500 ------- 1 0.0 3.0 35 39
+ 1.16 1 2 cbr 500 ------- 2 1.0 3.0 32 77
- 1.16 1 2 cbr 500 ------- 2 1.0 3.0 32 77
r 1.16333 2 3 cbr 500 ------- 2 1.0 3.0 8 45
r 1.164 1 2 cbr 500 ------- 2 1.0 3.0 30 75
+ 1.164 2 3 cbr 500 ------- 2 1.0 3.0 30 75
d 1.164 2 3 cbr 500 ------- 2 1.0 3.0 30 75
+ 1.165 1 2 cbr 500 ------- 2 1.0 3.0 33 78
- 1.165 1 2 cbr 500 ------- 2 1.0 3.0 33 78
r 1.16533 0 2 poisson 1500 ------- 1 0.0 3.0 40 58
+ 1.16533 2 3 poisson 1500 ------- 1 0.0 3.0 40 58
- 1.16533 2 3 cbr 500 ------- 2 1.0 3.0 9 46
- 1.16733 0 2 poisson 1500 ------- 1 0.0 3.0 42 60
r 1.169 1 2 cbr 500 ------- 2 1.0 3.0 31 76
+ 1.169 2 3 cbr 500 ------- 2 1.0 3.0 31 76
- 1.16933 2 3 poisson 1500 ------- 1 0.0 3.0 37 48
+ 1.17 1 2 cbr 500 ------- 2 1.0 3.0 34 79
- 1.17 1 2 cbr 500 ------- 2 1.0 3.0 34 79
r 1.174 1 2 cbr 500 ------- 2 1.0 3.0 32 77
+ 1.174 2 3 cbr 500 ------- 2 1.0 3.0 32 77
d 1.174 2 3 cbr 500 ------- 2 1.0 3.0 32 77
+ 1.175 1 2 cbr 500 ------- 2 1.0 3.0 35 80
- 1.175 1 2 cbr 500 ------- 2 1.0 3.0 35 80
r 1.17533 2 3 poisson 1500 ------- 1 0.0 3.0 36 42
r 1.17733 0 2 poisson 1500 ------- 1 0.0 3.0 41 59
+ 1.17733 2 3 poisson 1500 ------- 1 0.0 3.0 41 59
r 1.179 1 2 cbr 500 ------- 2 1.0 3.0 33 78
+ 1.179 2 3 cbr 500 ------- 2 1.0 3.0 33 78
d 1.179 2 3 cbr 500 ------- 2 1.0 3.0 33 78
r 1.17933 2 3 cbr 500 ------- 2 1.0 3.0 9 46
- 1.17933 0 2 poisson 1500 ------- 1 0.0 3.0 43 67
+ 1.18 1 2 cbr 500 ------- 2 1.0 3.0 36 81
- 1.18 1 2 cbr 500 ------- 2 1.0 3.0 36 81
- 1.18133 2 3 cbr 500 ------- 2 1.0 3.0 10 47
r 1.184 1 2 cbr 500 ------- 2 1.0 3.0 34 79
+ 1.184 2 3 cbr 500 ------- 2 1.0 3.0 34 79
+ 1.185 1 2 cbr 500 ------- 2 1.0 3.0 37 82
- 1.185 1 2 cbr 500 ------- 2 1.0 3.0 37 82
- 1.18533 2 3 poisson 1500 ------- 1 0.0 3.0 38 52
r 1.189 1 2 cbr 500 ------- 2 1.0 3.0 35 80
+ 1.189 2 3 cbr 500 ------- 2 1.0 3.0 35 80
d 1.189 2 3 cbr 500 ------- 2 1.0 3.0 35 80
r 1.18933 0 2 poisson 1500 ------- 1 0.0 3.0 42 60
+ 1.18933 2 3 poisson 1500 ------- 1 0.0 3.0 42 60
+ 1.19 1 2 cbr 500 ------- 2 1.0 3.0 38 83
- 1.19 1 2 cbr 500 ------- 2 1.0 3.0 38 83
r 1.19133 2 3 poisson 1500 ------- 1 0.0 3.0 37 48
- 1.19133 0 2 poisson 1500 ------- 1 0.0 3.0 44 74
r 1.194 1 2 cbr 500 ------- 2 1.0 3.0 36 81
+ 1.194 2 3 cbr 500 ------- 2 1.0 3.0 36 81
d 1.194 2 3 cbr 500 ------- 2 1.0 3.0 36 81
+ 1.195 1 2 cbr 500 ------- 2 1.0 3.0 39 84
- 1.195 1 2 cbr 500 ------- 2 1.0 3.0 39 84
r 1.19533 2 3 cbr 500 ------- 2 1.0 3.0 10 47
- 1.19733 2 3 cbr 500 ------- 2 1.0 3.0 11 49
r 1.199 1 2 cbr 500 ------- 2 1.0 3.0 37 82
+ 1.199 2 3 cbr 500 ------- 2 1.0 3.0 37 82
+ 1.2 1 2 cbr 500 ------- 2 1.0 3.0 40 85
- 1.2 1 2 cbr 500 ------- 2 1.0 3.0 40 85
r 1.20133 0 2 poisson 1500 ------- 1 0.0 3.0 43 67
+ 1.20133 2 3 poisson 1500 ------- 1 0.0 3.0 43 67
- 1.20133 2 3 poisson 1500 ------- 1 0.0 3.0 39 57
+ 1.203847 0 2 poisson 1500 ------- 1 0.0 3.0 45 86
- 1.203847 0 2 poisson 1500 ------- 1 0.0 3.0 45 86
r 1.204 1 2 cbr 500 ------- 2 1.0 3.0 38 83
+ 1.204 2 3 cbr 500 ------- 2 1.0 3.0 38 83
d 1.204 2 3 cbr 500 ------- 2 1.0 3.0 38 83
+ 1.205 1 2 cbr 500 ------- 2 1.0 3.0 41 87
- 1.205 1 2 cbr 500 ------- 2 1.0 3.0 41 87
r 1.20733 2 3 poisson 1500 ------- 1 0.0 3.0 38 52
r 1.209 1 2 cbr 500 ------- 2 1.0 3.0 39 84
+ 1.209 2 3 cbr 500 ------- 2 1.0 3.0 39 84
d 1.209 2 3 cbr 500 ------- 2 1.0 3.0 39 84
+ 1.21 1 2 cbr 500 ------- 2 1.0 3.0 42 88
- 1.21 1 2 cbr 500 ------- 2 1.0 3.0 42 88
+ 1.210077 0 2 poisson 1500 ------- 1 0.0 3.0 46 89
r 1.21133 2 3 cbr 500 ------- 2 1.0 3.0 11 49
r 1.21333 0 2 poisson 1500 ------- 1 0.0 3.0 44 74
+ 1.21333 2 3 poisson 1500 ------- 1 0.0 3.0 44 74
- 1.21333 2 3 cbr 500 ------- 2 1.0 3.0 12 50
r 1.214 1 2 cbr 500 ------- 2 1.0 3.0 40 85
+ 1.214 2 3 cbr 500 ------- 2 1.0 3.0 40 85
+ 1.215 1 2 cbr 500 ------- 2 1.0 3.0 43 90
- 1.215 1 2 cbr 500 ------- 2 1.0 3.0 43 90
- 1.215847 0 2 poisson 1500 ------- 1 0.0 3.0 46 89
- 1.21733 2 3 poisson 1500 ------- 1 0.0 3.0 40 58
r 1.219 1 2 cbr 500 ------- 2 1.0 3.0 41 87
+ 1.219 2 3 cbr 500 ------- 2 1.0 3.0 41 87
d 1.219 2 3 cbr 500 ------- 2 1.0 3.0 41 87
+ 1.22 1 2 cbr 500 ------- 2 1.0 3.0 44 91
- 1.22 1 2 cbr 500 ------- 2 1.0 3.0 44 91
+ 1.223177 0 2 poisson 1500 ------- 1 0.0 3.0 47 92
r 1.22333 2 3 poisson 1500 ------- 1 0.0 3.0 39 57
r 1.224 1 2 cbr 500 ------- 2 1.0 3.0 42 88
+ 1.224 2 3 cbr 500 ------- 2 1.0 3.0 42 88
d 1.224 2 3 cbr 500 ------- 2 1.0 3.0 42 88
+ 1.225 1 2 cbr 500 ------- 2 1.0 3.0 45 93
- 1.225 1 2 cbr 500 ------- 2 1.0 3.0 45 93
r 1.225847 0 2 poisson 1500 ------- 1 0.0 3.0 45 86
+ 1.225847 2 3 poisson 1500 ------- 1 0.0 3.0 45 86
r 1.22733 2 3 cbr 500 ------- 2 1.0 3.0 12 50
- 1.227847 0 2 poisson 1500 ------- 1 0.0 3.0 47 92
r 1.229 1 2 cbr 500 ------- 2 1.0 3.0 43 90
+ 1.229 2 3 cbr 500 ------- 2 1.0 3.0 43 90
d 1.229 2 3 cbr 500 ------- 2 1.0 3.0 43 90
- 1.22933 2 3 cbr 500 ------- 2 1.0 3.0 13 51
+ 1.23 1 2 cbr 500 ------- 2 1.0 3.0 46 94
- 1.23 1 2 cbr 500 ------- 2 1.0 3.0 46 94
- 1.23333 2 3 poisson 1500 ------- 1 0.0 3.0 41 59
r 1.234 1 2 cbr 500 ------- 2 1.0 3.0 44 91
+ 1.234 2 3 cbr 500 ------- 2 1.0 3.0 44 91
+ 1.235 1 2 cbr 500 ------- 2 1.0 3.0 47 95
- 1.235 1 2 cbr 500 ------- 2 1.0 3.0 47 95
r 1.237847 0 2 poisson 1500 ------- 1 0.0 3.0 46 89
+ 1.237847 2 3 poisson 1500 ------- 1 0.0 3.0 46 89
r 1.239 1 2 cbr 500 ------- 2 1.0 3.0 45 93
+ 1.239 2 3 cbr 500 ------- 2 1.0 3.0 45 93
d 1.239 2 3 cbr 500 ------- 2 1.0 3.0 45 93
r 1.23933 2 3 poisson 1500 ------- 1 0.0 3.0 40 58
+ 1.24 1 2 cbr 500 ------- 2 1.0 3.0 48 96
- 1.24 1 2 cbr 500 ------- 2 1.0 3.0 48 96
r 1.24333 2 3 cbr 500 ------- 2 1.0 3.0 13 51
r 1.244 1 2 cbr 500 ------- 2 1.0 3.0 46 94
+ 1.244 2 3 cbr 500 ------- 2 1.0 3.0 46 94
d 1.244 2 3 cbr 500 ------- 2 1.0 3.0 46 94
+ 1.245 1 2 cbr 500 ------- 2 1.0 3.0 49 97
- 1.245 1 2 cbr 500 ------- 2 1.0 3.0 49 97
- 1.24533 2 3 cbr 500 ------- 2 1.0 3.0 14 53
+ 1.248314 0 2 poisson 1500 ------- 1 0.0 3.0 48 98
- 1.248314 0 2 poisson 1500 ------- 1 0.0 3.0 48 98
r 1.249 1 2 cbr 500 ------- 2 1.0 3.0 47 95
+ 1.249 2 3 cbr 500 ------- 2 1.0 3.0 47 95
- 1.24933 2 3 poisson 1500 ------- 1 0.0 3.0 42 60
r 1.249847 0 2 poisson 1500 ------- 1 0.0 3.0 47 92
+ 1.249847 2 3 poisson 1500 ------- 1 0.0 3.0 47 92
+ 1.25 1 2 cbr 500 ------- 2 1.0 3.0 50 99
- 1.25 1 2 cbr 500 ------- 2 1.0 3.0 50 99
+ 1.253144 0 2 poisson 1500 ------- 1 0.0 3.0 49 100
r 1.254 1 2 cbr 500 ------- 2 1.0 3.0 48 96
+ 1.254 2 3 cbr 500 ------- 2 1.0 3.0 48 96
d 1.254 2 3 cbr 500 ------- 2 1.0 3.0 48 96
+ 1.255 1 2 cbr 500 ------- 2 1.0 3.0 51 101
- 1.255 1 2 cbr 500 ------- 2 1.0 3.0 51 101
r 1.25533 2 3 poisson 1500 ------- 1 0.0 3.0 41 59
r 1.259 1 2 cbr 500 ------- 2 1.0 3.0 49 97
+ 1.259 2 3 cbr 500 ------- 2 1.0 3.0 49 97
d 1.259 2 3 cbr 500 ------- 2 1.0 3.0 49 97
r 1.25933 2 3 cbr 500 ------- 2 1.0 3.0 14 53
+ 1.26 1 2 cbr 500 ------- 2 1.0 3.0 52 102
- 1.26 1 2 cbr 500 ------- 2 1.0 3.0 52 102
- 1.260314 0 2 poisson 1500 ------- 1 0.0 3.0 49 100
- 1.26133 2 3 cbr 500 ------- 2 1.0 3.0 15 54
r 1.264 1 2 cbr 500 ------- 2 1.0 3.0 50 99
+ 1.264 2 3 cbr 500 ------- 2 1.0 3.0 50 99
+ 1.265 1 2 cbr 500 ------- 2 1.0 3.0 53 103
- 1.265 1 2 cbr 500 ------- 2 1.0 3.0 53 103
- 1.26533 2 3 poisson 1500 ------- 1 0.0 3.0 43 67
r 1.269 1 2 cbr 500 ------- 2 1.0 3.0 51 101
+ 1.269 2 3 cbr 500 ------- 2 1.0 3.0 51 101
d 1.269 2 3 cbr 500 ------- 2 1.0 3.0 51 101
+ 1.269448 0 2 poisson 1500 ------- 1 0.0 3.0 50 104
+ 1.27 1 2 cbr 500 ------- 2 1.0 3.0 54 105
- 1.27 1 2 cbr 500 ------- 2 1.0 3.0 54 105
r 1.270314 0 2 poisson 1500 ------- 1 0.0 3.0 48 98
+ 1.270314 2 3 poisson 1500 ------- 1 0.0 3.0 48 98
r 1.27133 2 3 poisson 1500 ------- 1 0.0 3.0 42 60
- 1.272314 0 2 poisson 1500 ------- 1 0.0 3.0 50 104
+ 1.273751 0 2 poisson 1500 ------- 1 0.0 3.0 51 106
r 1.274 1 2 cbr 500 ------- 2 1.0 3.0 52 102
+ 1.274 2 3 cbr 500 ------- 2 1.0 3.0 52 102
d 1.274 2 3 cbr 500 ------- 2 1.0 3.0 52 102
+ 1.275 1 2 cbr 500 ------- 2 1.0 3.0 55 107
- 1.275 1 2 cbr 500 ------- 2 1.0 3.0 55 107
r 1.27533 2 3 cbr 500 ------- 2 1.0 3.0 15 54
- 1.27733 2 3 cbr 500 ------- 2 1.0 3.0 16 55
r 1.279 1 2 cbr 500 ------- 2 1.0 3.0 53 103
+ 1.279 2 3 cbr 500 ------- 2 1.0 3.0 53 103
+ 1.28 1 2 cbr 500 ------- 2 1.0 3.0 56 108
- 1.28 1 2 cbr 500 ------- 2 1.0 3.0 56 108
+ 1.281039 0 2 poisson 1500 ------- 1 0.0 3.0 52 109
- 1.28133 2 3 poisson 1500 ------- 1 0.0 3.0 44 74
r 1.282314 0 2 poisson 1500 ------- 1 0.0 3.0 49 100
+ 1.282314 2 3 poisson 1500 ------- 1 0.0 3.0 49 100
+ 1.282618 0 2 poisson 1500 ------- 1 0.0 3.0 53 110
r 1.284 1 2 cbr 500 ------- 2 1.0 3.0 54 105
+ 1.284 2 3 cbr 500 ------- 2 1.0 3.0 54 105
d 1.284 2 3 cbr 500 ------- 2 1.0 3.0 54 105
- 1.284314 0 2 poisson 1500 ------- 1 0.0 3.0 51 106
+ 1.285 1 2 cbr 500 ------- 2 1.0 3.0 57 111
- 1.285 1 2 cbr 500 ------- 2 1.0 3.0 57 111
r 1.28733 2 3 poisson 1500 ------- 1 0.0 3.0 43 67
r 1.289 1 2 cbr 500 ------- 2 1.0 3.0 55 107
+ 1.289 2 3 cbr 500 ------- 2 1.0 3.0 55 107
d 1.289 2 3 cbr 500 ------- 2 1.0 3.0 55 107
+ 1.29 1 2 cbr 500 ------- 2 1.0 3.0 58 112
- 1.29 1 2 cbr 500 ------- 2 1.0 3.0 58 112
r 1.29133 2 3 cbr 500 ------- 2 1.0 3.0 16 55
- 1.29333 2 3 cbr 500 ------- 2 1.0 3.0 17 56
r 1.294 1 2 cbr 500 ------- 2 1.0 3.0 56 108
+ 1.294 2 3 cbr 500 ------- 2 1.0 3.0 56 108
r 1.294314 0 2 poisson 1500 ------- 1 0.0 3.0 50 104
+ 1.294314 2 3 poisson 1500 ------- 1 0.0 3.0 50 104
+ 1.295 1 2 cbr 500 ------- 2 1.0 3.0 59 113
- 1.295 1 2 cbr 500 ------- 2 1.0 3.0 59 113
- 1.296314 0 2 poisson 1500 ------- 1 0.0 3.0 52 109
- 1.29733 2 3 poisson 1500 ------- 1 0.0 3.0 45 86
+ 1.298699 0 2 poisson 1500 ------- 1 0.0 3.0 54 114
r 1.299 1 2 cbr 500 ------- 2 1.0 3.0 57 111
+ 1.299 2 3 cbr 500 ------- 2 1.0 3.0 57 111
d 1.299 2 3 cbr 500 ------- 2 1.0 3.0 57 111
+ 1.3 1 2 cbr 500 ------- 2 1.0 3.0 60 115
- 1.3 1 2 cbr 500 ------- 2 1.0 3.0 60 115
r 1.30333 2 3 poisson 1500 ------- 1 0.0 3.0 44 74
r 1.304 1 2 cbr 500 ------- 2 1.0 3.0 58 112
+ 1.304 2 3 cbr 500 ------- 2 1.0 3.0 58 112
d 1.304 2 3 cbr 500 ------- 2 1.0 3.0 58 112
+ 1.305 1 2 cbr 500 ------- 2 1.0 3.0 61 116
- 1.305 1 2 cbr 500 ------- 2 1.0 3.0 61 116
+ 1.305768 0 2 poisson 1500 ------- 1 0.0 3.0 55 117
r 1.306314 0 2 poisson 1500 ------- 1 0.0 3.0 51 106
+ 1.306314 2 3 poisson 1500 ------- 1 0.0 3.0 51 106
r 1.30733 2 3 cbr 500 ------- 2 1.0 3.0 17 56
- 1.308314 0 2 poisson 1500 ------- 1 0.0 3.0 53 110
r 1.309 1 2 cbr 500 ------- 2 1.0 3.0 59 113
+ 1.309 2 3 cbr 500 ------- 2 1.0 3.0 59 113
d 1.309 2 3 cbr 500 ------- 2 1.0 3.0 59 113
- 1.30933 2 3 cbr 500 ------- 2 1.0 3.0 18 61
+ 1.31 1 2 cbr 500 ------- 2 1.0 3.0 62 118
- 1.31 1 2 cbr 500 ------- 2 1.0 3.0 62 118
- 1.31333 2 3 poisson 1500 ------- 1 0.0 3.0 46 89
r 1.314 1 2 cbr 500 ------- 2 1.0 3.0 60 115
+ 1.314 2 3 cbr 500 ------- 2 1.0 3.0 60 115
+ 1.315 1 2 cbr 500 ------- 2 1.0 3.0 63 119
- 1.315 1 2 cbr 500 ------- 2 1.0 3.0 63 119
+ 1.316017 0 2 poisson 1500 ------- 1 0.0 3.0 56 120
r 1.318314 0 2 poisson 1500 ------- 1 0.0 3.0 52 109
+ 1.318314 2 3 poisson 1500 ------- 1 0.0 3.0 52 109
r 1.319 1 2 cbr 500 ------- 2 1.0 3.0 61 116
+ 1.319 2 3 cbr 500 ------- 2 1.0 3.0 61 116
d 1.319 2 3 cbr 500 ------- 2 1.0 3.0 61 116
r 1.31933 2 3 poisson 1500 ------- 1 0.0 3.0 45 86
+ 1.32 1 2 cbr 500 ------- 2 1.0 3.0 64 121