V -t * -v 1.0a5 -a 0
A -t * -n 1 -p 0 -o 0xffffffff -c 31 -a 1
A -t * -h 1 -m 2147483647 -s 0
c -t * -i 1 -n Blue
c -t * -i 2 -n Red
n -t * -a 0 -s 0 -S UP -v circle -c black -i black
n -t * -a 1 -s 1 -S UP -v circle -c black -i black
n -t * -a 2 -s 2 -S UP -v circle -c black -i black
n -t * -a 3 -s 3 -S UP -v circle -c black -i black
l -t * -s 0 -d 2 -S UP -r 1000000 -D 0.01 -c black -o right-down
l -t * -s 1 -d 2 -S UP -r 1000000 -D 0.01 -c black -o right-up
l -t * -s 2 -d 3 -S UP -r 1000000 -D 0.01 -c black -o right
q -t * -s 2 -d 3 -a 0.5
q -t * -s 3 -d 2 -a 0.5
+ -t 0.5 -s 0 -d 2 -p poisson -e 1500 -c 1 -i 0 -a 1 -x {0.0 3.0 0 ------- null}
- -t 0.5 -s 0 -d 2 -p poisson -e 1500 -c 1 -i 0 -a 1 -x {0.0 3.0 0 ------- null}
h -t 0.5 -s 0 -d 2 -p poisson -e 1500 -c 1 -i 0 -a 1 -x {0.0 3.0 -1 ------- null}
r -t 0.522 -s 0 -d 2 -p poisson -e 1500 -c 1 -i 0 -a 1 -x {0.0 3.0 0 ------- null}
+ -t 0.522 -s 2 -d 3 -p poisson -e 1500 -c 1 -i 0 -a 1 -x {0.0 3.0 0 ------- null}
- -t 0.522 -s 2 -d 3 -p poisson -e 1500 -c 1 -i 0 -a 1 -x {0.0 3.0 0 ------- null}
h -t 0.522 -s 2 -d 3 -p poisson -e 1500 -c 1 -i 0 -a 1 -x {0.0 3.0 -1 ------- null}
r -t 0.544 -s 2 -d 3 -p poisson -e 1500 -c 1 -i 0 -a 1 -x {0.0 3.0 0 ------- null}
+ -t 0.595853710082491 -s 0 -d 2 -p poisson -e 1500 -c 1 -i 1 -a 1 -x {0.0 3.0 1 ------- null}
- -t 0.595853710082491 -s 0 -d 2 -p poisson -e 1500 -c 1 -i 1 -a 1 -x {0.0 3.0 1 ------- null}
h -t 0.595853710082491 -s 0 -d 2 -p poisson -e 1500 -c 1 -i 1 -a 1 -x {0.0 3.0 -1 ------- null}
+ -t 0.602900128650664 -s 0 -d 2 -p poisson -e 1500 -c 1 -i 2 -a 1 -x {0.0 3.0 2 ------- null}
- -t 0.607853710082491 -s 0 -d 2 -p poisson -e 1500 -c 1 -i 2 -a 1 -x {0.0 3.0 2 ------- null}
h -t 0.607853710082491 -s 0 -d 2 -p poisson -e 1500 -c 1 -i 2 -a 1 -x {0.0 3.0 -1 ------- null}
r -t 0.617853710082491 -s 0 -d 2 -p poisson -e 1500 -c 1 -i 1 -a 1 -x {0.0 3.0 1 ------- null}
+ -t 0.617853710082491 -s 2 -d 3 -p poisson -e 1500 -c 1 -i 1 -a 1 -x {0.0 3.0 1 ------- null}
- -t 0.617853710082491 -s 2 -d 3 -p poisson -e 1500 -c 1 -i 1 -a 1 -x {0.0 3.0 1 ------- null}
h -t 0.617853710082491 -s 2 -d 3 -p poisson -e 1500 -c 1 -i 1 -a 1 -x {0.0 3.0 -1 ------- null}
r -t 0.629853710082491 -s 0 -d 2 -p poisson -e 1500 -c 1 -i 2 -a 1 -x {0.0 3.0 2 ------- null}
+ -t 0.629853710082491 -s 2 -d 3 -p poisson -e 1500 -c 1 -i 2 -a 1 -x {0.0 3.0 2 ------- null}
- -t 0.629853710082491 -s 2 -d 3 -p poisson -e 1500 -c 1 -i 2 -a 1 -x {0.0 3.0 2 ------- null}
h -t 0.629853710082491 -s 2 -d 3 -p poisson -e 1500 -c 1 -i 2 -a 1 -x {0.0 3.0 -1 ------- null}
r -t 0.639853710082491 -s 2 -d 3 -p poisson -e 1500 -c 1 -i 1 -a 1 -x {0.0 3.0 1 ------- null}
r -t 0.651853710082491 -s 2 -d 3 -p poisson -e 1500 -c 1 -i 2 -a 1 -x {0.0 3.0 2 ------- null}
+ -t 0.653950350489539 -s 0 -d 2 -p poisson -e 1500 -c 1 -i 3 -a 1 -x {0.0 3.0 3 ------- null}
- -t 0.653950350489539 -s 0 -d 2 -p poisson -e 1500 -c 1 -i 3 -a 1 -x {0.0 3.0 3 ------- null}
h -t 0.653950350489539 -s 0 -d 2 -p poisson -e 1500 -c 1 -i 3 -a 1 -x {0.0 3.0 -1 ------- null}
r -t 0.675950350489539 -s 0 -d 2 -p poisson -e 1500 -c 1 -i 3 -a 1 -x {0.0 3.0 3 ------- null}
+ -t 0.675950350489539 -s 2 -d 3 -p poisson -e 1500 -c 1 -i 3 -a 1 -x {0.0 3.0 3 ------- null}
- -t 0.675950350489539 -s 2 -d 3 -p poisson -e 1500 -c 1 -i 3 -a 1 -x {0.0 3.0 3 ------- null}
h -t 0.675950350489539 -s 2 -d 3 -p poisson -e 1500 -c 1 -i 3 -a 1 -x {0.0 3.0 -1 ------- null}
+ -t 0.683098655805601 -s 0 -d 2 -p poisson -e 1500 -c 1 -i 4 -a 1 -x {0.0 3.0 4 ------- null}
- -t 0.683098655805601 -s 0 -d 2 -p poisson -e 1500 -c 1 -i 4 -a 1 -x {0.0 3.0 4 ------- null}
h -t 0.683098655805601 -s 0 -d 2 -p poisson -e 1500 -c 1 -i 4 -a 1 -x {0.0 3.0 -1 ------- null}
+ -t 0.692918463696343 -s 0 -d 2 -p poisson -e 1500 -c 1 -i 5 -a 1 -x {0.0 3.0 5 ------- null}
- -t 0.695098655805601 -s 0 -d 2 -p poisson -e 1500 -c 1 -i 5 -a 1 -x {0.0 3.0 5 ------- null}
h -t 0.695098655805601 -s 0 -d 2 -p poisson -e 1500 -c 1 -i 5 -a 1 -x {0.0 3.0 -1 ------- null}
+ -t 0.695608861201049 -s 0 -d 2 -p poisson -e 1500 -c 1 -i 6 -a 1 -x {0.0 3.0 6 ------- null}
r -t 0.697950350489539 -s 2 -d 3 -p poisson -e 1500 -c 1 -i 3 -a 1 -x {0.0 3.0 3 ------- null}
r -t 0.705098655805601 -s 0 -d 2 -p poisson -e 1500 -c 1 -i 4 -a 1 -x {0.0 3.0 4 ------- null}
+ -t 0.705098655805601 -s 2 -d 3 -p poisson -e 1500 -c 1 -i 4 -a 1 -x {0.0 3.0 4 ------- null}
- -t 0.705098655805601 -s 2 -d 3 -p poisson -e 1500 -c 1 -i 4 -a 1 -x {0.0 3.0 4 ------- null}
h -t 0.705098655805601 -s 2 -d 3 -p poisson -e 1500 -c 1 -i 4 -a 1 -x {0.0 3.0 -1 ------- null}
- -t 0.707098655805601 -s 0 -d 2 -p poisson -e 1500 -c 1 -i 6 -a 1 -x {0.0 3.0 6 ------- null}
h -t 0.707098655805601 -s 0 -d 2 -p poisson -e 1500 -c 1 -i 6 -a 1 -x {0.0 3.0 -1 ------- null}
+ -t 0.709548951975852 -s 0 -d 2 -p poisson -e 1500 -c 1 -i 7 -a 1 -x {0.0 3.0 7 ------- null}
+ -t 0.711982044349168 -s 0 -d 2 -p poisson -e 1500 -c 1 -i 8 -a 1 -x {0.0 3.0 8 ------- null}
r -t 0.717098655805601 -s 0 -d 2 -p poisson -e 1500 -c 1 -i 5 -a 1 -x {0.0 3.0 5 ------- null}
+ -t 0.717098655805601 -s 2 -d 3 -p poisson -e 1500 -c 1 -i 5 -a 1 -x {0.0 3.0 5 ------- null}
- -t 0.717098655805601 -s 2 -d 3 -p poisson -e 1500 -c 1 -i 5 -a 1 -x {0.0 3.0 5 ------- null}
h -t 0.717098655805601 -s 2 -d 3 -p poisson -e 1500 -c 1 -i 5 -a 1 -x {0.0 3.0 -1 ------- null}
- -t 0.719098655805601 -s 0 -d 2 -p poisson -e 1500 -c 1 -i 7 -a 1 -x {0.0 3.0 7 ------- null}
h -t 0.719098655805601 -s 0 -d 2 -p poisson -e 1500 -c 1 -i 7 -a 1 -x {0.0 3.0 -1 ------- null}
r -t 0.727098655805601 -s 2 -d 3 -p poisson -e 1500 -c 1 -i 4 -a 1 -x {0.0 3.0 4 ------- null}
r -t 0.729098655805601 -s 0 -d 2 -p poisson -e 1500 -c 1 -i 6 -a 1 -x {0.0 3.0 6 ------- null}
+ -t 0.729098655805601 -s 2 -d 3 -p poisson -e 1500 -c 1 -i 6 -a 1 -x {0.0 3.0 6 ------- null}
- -t 0.729098655805601 -s 2 -d 3 -p poisson -e 1500 -c 1 -i 6 -a 1 -x {0.0 3.0 6 ------- null}
h -t 0.729098655805601 -s 2 -d 3 -p poisson -e 1500 -c 1 -i 6 -a 1 -x {0.0 3.0 -1 ------- null}
+ -t 0.729380434853756 -s 0 -d 2 -p poisson -e 1500 -c 1 -i 9 -a 1 -x {0.0 3.0 9 ------- null}
- -t 0.731098655805601 -s 0 -d 2 -p poisson -e 1500 -c 1 -i 8 -a 1 -x {0.0 3.0 8 ------- null}
h -t 0.731098655805601 -s 0 -d 2 -p poisson -e 1500 -c 1 -i 8 -a 1 -x {0.0 3.0 -1 ------- null}
+ -t 0.734757177537102 -s 0 -d 2 -p poisson -e 1500 -c 1 -i 10 -a 1 -x {0.0 3.0 10 ------- null}
r -t 0.739098655805601 -s 2 -d 3 -p poisson -e 1500 -c 1 -i 5 -a 1 -x {0.0 3.0 5 ------- null}
r -t 0.741098655805601 -s 0 -d 2 -p poisson -e 1500 -c 1 -i 7 -a 1 -x {0.0 3.0 7 ------- null}
+ -t 0.741098655805601 -s 2 -d 3 -p poisson -e 1500 -c 1 -i 7 -a 1 -x {0.0 3.0 7 ------- null}
- -t 0.741098655805601 -s 2 -d 3 -p poisson -e 1500 -c 1 -i 7 -a 1 -x {0.0 3.0 7 ------- null}
h -t 0.741098655805601 -s 2 -d 3 -p poisson -e 1500 -c 1 -i 7 -a 1 -x {0.0 3.0 -1 ------- null}
- -t 0.743098655805601 -s 0 -d 2 -p poisson -e 1500 -c 1 -i 9 -a 1 -x {0.0 3.0 9 ------- null}
h -t 0.743098655805601 -s 0 -d 2 -p poisson -e 1500 -c 1 -i 9 -a 1 -x {0.0 3.0 -1 ------- null}
+ -t 0.748847075747543 -s 0 -d 2 -p poisson -e 1500 -c 1 -i 11 -a 1 -x {0.0 3.0 11 ------- null}
+ -t 0.75099195256607 -s 0 -d 2 -p poisson -e 1500 -c 1 -i 12 -a 1 -x {0.0 3.0 12 ------- null}
r -t 0.751098655805601 -s 2 -d 3 -p poisson -e 1500 -c 1 -i 6 -a 1 -x {0.0 3.0 6 ------- null}
r -t 0.753098655805601 -s 0 -d 2 -p poisson -e 1500 -c 1 -i 8 -a 1 -x {0.0 3.0 8 ------- null}
+ -t 0.753098655805601 -s 2 -d 3 -p poisson -e 1500 -c 1 -i 8 -a 1 -x {0.0 3.0 8 ------- null}
- -t 0.753098655805601 -s 2 -d 3 -p poisson -e 1500 -c 1 -i 8 -a 1 -x {0.0 3.0 8 ------- null}
h -t 0.753098655805601 -s 2 -d 3 -p poisson -e 1500 -c 1 -i 8 -a 1 -x {0.0 3.0 -1 ------- null}
- -t 0.755098655805601 -s 0 -d 2 -p poisson -e 1500 -c 1 -i 10 -a 1 -x {0.0 3.0 10 ------- null}
h -t 0.755098655805601 -s 0 -d 2 -p poisson -e 1500 -c 1 -i 10 -a 1 -x {0.0 3.0 -1 ------- null}
r -t 0.763098655805601 -s 2 -d 3 -p poisson -e 1500 -c 1 -i 7 -a 1 -x {0.0 3.0 7 ------- null}
r -t 0.765098655805601 -s 0 -d 2 -p poisson -e 1500 -c 1 -i 9 -a 1 -x {0.0 3.0 9 ------- null}
+ -t 0.765098655805601 -s 2 -d 3 -p poisson -e 1500 -c 1 -i 9 -a 1 -x {0.0 3.0 9 ------- null}
- -t 0.765098655805601 -s 2 -d 3 -p poisson -e 1500 -c 1 -i 9 -a 1 -x {0.0 3.0 9 ------- null}
h -t 0.765098655805601 -s 2 -d 3 -p poisson -e 1500 -c 1 -i 9 -a 1 -x {0.0 3.0 -1 ------- null}
- -t 0.767098655805601 -s 0 -d 2 -p poisson -e 1500 -c 1 -i 11 -a 1 -x {0.0 3.0 11 ------- null}
h -t 0.767098655805601 -s 0 -d 2 -p poisson -e 1500 -c 1 -i 11 -a 1 -x {0.0 3.0 -1 ------- null}
+ -t 0.772675983986379 -s 0 -d 2 -p poisson -e 1500 -c 1 -i 13 -a 1 -x {0.0 3.0 13 ------- null}
r -t 0.775098655805601 -s 2 -d 3 -p poisson -e 1500 -c 1 -i 8 -a 1 -x {0.0 3.0 8 ------- null}
r -t 0.777098655805601 -s 0 -d 2 -p poisson -e 1500 -c 1 -i 10 -a 1 -x {0.0 3.0 10 ------- null}
+ -t 0.777098655805601 -s 2 -d 3 -p poisson -e 1500 -c 1 -i 10 -a 1 -x {0.0 3.0 10 ------- null}
- -t 0.777098655805601 -s 2 -d 3 -p poisson -e 1500 -c 1 -i 10 -a 1 -x {0.0 3.0 10 ------- null}
h -t 0.777098655805601 -s 2 -d 3 -p poisson -e 1500 -c 1 -i 10 -a 1 -x {0.0 3.0 -1 ------- null}
- -t 0.779098655805601 -s 0 -d 2 -p poisson -e 1500 -c 1 -i 12 -a 1 -x {0.0 3.0 12 ------- null}
h -t 0.779098655805601 -s 0 -d 2 -p poisson -e 1500 -c 1 -i 12 -a 1 -x {0.0 3.0 -1 ------- null}
r -t 0.787098655805601 -s 2 -d 3 -p poisson -e 1500 -c 1 -i 9 -a 1 -x {0.0 3.0 9 ------- null}
r -t 0.789098655805601 -s 0 -d 2 -p poisson -e 1500 -c 1 -i 11 -a 1 -x {0.0 3.0 11 ------- null}
+ -t 0.789098655805601 -s 2 -d 3 -p poisson -e 1500 -c 1 -i 11 -a 1 -x {0.0 3.0 11 ------- null}
- -t 0.789098655805601 -s 2 -d 3 -p poisson -e 1500 -c 1 -i 11 -a 1 -x {0.0 3.0 11 ------- null}
h -t 0.789098655805601 -s 2 -d 3 -p poisson -e 1500 -c 1 -i 11 -a 1 -x {0.0 3.0 -1 ------- null}
- -t 0.791098655805601 -s 0 -d 2 -p poisson -e 1500 -c 1 -i 13 -a 1 -x {0.0 3.0 13 ------- null}
h -t 0.791098655805601 -s 0 -d 2 -p poisson -e 1500 -c 1 -i 13 -a 1 -x {0.0 3.0 -1 ------- null}
r -t 0.799098655805601 -s 2 -d 3 -p poisson -e 1500 -c 1 -i 10 -a 1 -x {0.0 3.0 10 ------- null}
r -t 0.801098655805601 -s 0 -d 2 -p poisson -e 1500 -c 1 -i 12 -a 1 -x {0.0 3.0 12 ------- null}
+ -t 0.801098655805601 -s 2 -d 3 -p poisson -e 1500 -c 1 -i 12 -a 1 -x {0.0 3.0 12 ------- null}
- -t 0.801098655805601 -s 2 -d 3 -p poisson -e 1500 -c 1 -i 12 -a 1 -x {0.0 3.0 12 ------- null}
h -t 0.801098655805601 -s 2 -d 3 -p poisson -e 1500 -c 1 -i 12 -a 1 -x {0.0 3.0 -1 ------- null}
+ -t 0.810492116069955 -s 0 -d 2 -p poisson -e 1500 -c 1 -i 14 -a 1 -x {0.0 3.0 14 ------- null}
- -t 0.810492116069955 -s 0 -d 2 -p poisson -e 1500 -c 1 -i 14 -a 1 -x {0.0 3.0 14 ------- null}
h -t 0.810492116069955 -s 0 -d 2 -p poisson -e 1500 -c 1 -i 14 -a 1 -x {0.0 3.0 -1 ------- null}
r -t 0.811098655805601 -s 2 -d 3 -p poisson -e 1500 -c 1 -i 11 -a 1 -x {0.0 3.0 11 ------- null}
r -t 0.813098655805601 -s 0 -d 2 -p poisson -e 1500 -c 1 -i 13 -a 1 -x {0.0 3.0 13 ------- null}
+ -t 0.813098655805601 -s 2 -d 3 -p poisson -e 1500 -c 1 -i 13 -a 1 -x {0.0 3.0 13 ------- null}
- -t 0.813098655805601 -s 2 -d 3 -p poisson -e 1500 -c 1 -i 13 -a 1 -x {0.0 3.0 13 ------- null}
h -t 0.813098655805601 -s 2 -d 3 -p poisson -e 1500 -c 1 -i 13 -a 1 -x {0.0 3.0 -1 ------- null}
+ -t 0.815846292760108 -s 0 -d 2 -p poisson -e 1500 -c 1 -i 15 -a 1 -x {0.0 3.0 15 ------- null}
- -t 0.822492116069955 -s 0 -d 2 -p poisson -e 1500 -c 1 -i 15 -a 1 -x {0.0 3.0 15 ------- null}
h -t 0.822492116069955 -s 0 -d 2 -p poisson -e 1500 -c 1 -i 15 -a 1 -x {0.0 3.0 -1 ------- null}
r -t 0.823098655805601 -s 2 -d 3 -p poisson -e 1500 -c 1 -i 12 -a 1 -x {0.0 3.0 12 ------- null}
r -t 0.832492116069955 -s 0 -d 2 -p poisson -e 1500 -c 1 -i 14 -a 1 -x {0.0 3.0 14 ------- null}
+ -t 0.832492116069955 -s 2 -d 3 -p poisson -e 1500 -c 1 -i 14 -a 1 -x {0.0 3.0 14 ------- null}
- -t 0.832492116069955 -s 2 -d 3 -p poisson -e 1500 -c 1 -i 14 -a 1 -x {0.0 3.0 14 ------- null}
h -t 0.832492116069955 -s 2 -d 3 -p poisson -e 1500 -c 1 -i 14 -a 1 -x {0.0 3.0 -1 ------- null}
r -t 0.835098655805601 -s 2 -d 3 -p poisson -e 1500 -c 1 -i 13 -a 1 -x {0.0 3.0 13 ------- null}
+ -t 0.841925176081422 -s 0 -d 2 -p poisson -e 1500 -c 1 -i 16 -a 1 -x {0.0 3.0 16 ------- null}
- -t 0.841925176081422 -s 0 -d 2 -p poisson -e 1500 -c 1 -i 16 -a 1 -x {0.0 3.0 16 ------- null}
h -t 0.841925176081422 -s 0 -d 2 -p poisson -e 1500 -c 1 -i 16 -a 1 -x {0.0 3.0 -1 ------- null}
+ -t 0.843738850930976 -s 0 -d 2 -p poisson -e 1500 -c 1 -i 17 -a 1 -x {0.0 3.0 17 ------- null}
r -t 0.844492116069955 -s 0 -d 2 -p poisson -e 1500 -c 1 -i 15 -a 1 -x {0.0 3.0 15 ------- null}
+ -t 0.844492116069955 -s 2 -d 3 -p poisson -e 1500 -c 1 -i 15 -a 1 -x {0.0 3.0 15 ------- null}
- -t 0.844492116069955 -s 2 -d 3 -p poisson -e 1500 -c 1 -i 15 -a 1 -x {0.0 3.0 15 ------- null}
h -t 0.844492116069955 -s 2 -d 3 -p poisson -e 1500 -c 1 -i 15 -a 1 -x {0.0 3.0 -1 ------- null}
- -t 0.853925176081422 -s 0 -d 2 -p poisson -e 1500 -c 1 -i 17 -a 1 -x {0.0 3.0 17 ------- null}
h -t 0.853925176081422 -s 0 -d 2 -p poisson -e 1500 -c 1 -i 17 -a 1 -x {0.0 3.0 -1 ------- null}
+ -t 0.854044831761158 -s 0 -d 2 -p poisson -e 1500 -c 1 -i 18 -a 1 -x {0.0 3.0 18 ------- null}
r -t 0.854492116069955 -s 2 -d 3 -p poisson -e 1500 -c 1 -i 14 -a 1 -x {0.0 3.0 14 ------- null}
r -t 0.863925176081422 -s 0 -d 2 -p poisson -e 1500 -c 1 -i 16 -a 1 -x {0.0 3.0 16 ------- null}
+ -t 0.863925176081422 -s 2 -d 3 -p poisson -e 1500 -c 1 -i 16 -a 1 -x {0.0 3.0 16 ------- null}
- -t 0.863925176081422 -s 2 -d 3 -p poisson -e 1500 -c 1 -i 16 -a 1 -x {0.0 3.0 16 ------- null}
h -t 0.863925176081422 -s 2 -d 3 -p poisson -e 1500 -c 1 -i 16 -a 1 -x {0.0 3.0 -1 ------- null}
- -t 0.865925176081422 -s 0 -d 2 -p poisson -e 1500 -c 1 -i 18 -a 1 -x {0.0 3.0 18 ------- null}
h -t 0.865925176081422 -s 0 -d 2 -p poisson -e 1500 -c 1 -i 18 -a 1 -x {0.0 3.0 -1 ------- null}
r -t 0.866492116069955 -s 2 -d 3 -p poisson -e 1500 -c 1 -i 15 -a 1 -x {0.0 3.0 15 ------- null}
+ -t 0.874973824881027 -s 0 -d 2 -p poisson -e 1500 -c 1 -i 19 -a 1 -x {0.0 3.0 19 ------- null}
r -t 0.875925176081422 -s 0 -d 2 -p poisson -e 1500 -c 1 -i 17 -a 1 -x {0.0 3.0 17 ------- null}
+ -t 0.875925176081422 -s 2 -d 3 -p poisson -e 1500 -c 1 -i 17 -a 1 -x {0.0 3.0 17 ------- null}
- -t 0.875925176081422 -s 2 -d 3 -p poisson -e 1500 -c 1 -i 17 -a 1 -x {0.0 3.0 17 ------- null}
h -t 0.875925176081422 -s 2 -d 3 -p poisson -e 1500 -c 1 -i 17 -a 1 -x {0.0 3.0 -1 ------- null}
- -t 0.877925176081422 -s 0 -d 2 -p poisson -e 1500 -c 1 -i 19 -a 1 -x {0.0 3.0 19 ------- null}
h -t 0.877925176081422 -s 0 -d 2 -p poisson -e 1500 -c 1 -i 19 -a 1 -x {0.0 3.0 -1 ------- null}
r -t 0.885925176081422 -s 2 -d 3 -p poisson -e 1500 -c 1 -i 16 -a 1 -x {0.0 3.0 16 ------- null}
r -t 0.887925176081422 -s 0 -d 2 -p poisson -e 1500 -c 1 -i 18 -a 1 -x {0.0 3.0 18 ------- null}
+ -t 0.887925176081422 -s 2 -d 3 -p poisson -e 1500 -c 1 -i 18 -a 1 -x {0.0 3.0 18 ------- null}
- -t 0.887925176081422 -s 2 -d 3 -p poisson -e 1500 -c 1 -i 18 -a 1 -x {0.0 3.0 18 ------- null}
h -t 0.887925176081422 -s 2 -d 3 -p poisson -e 1500 -c 1 -i 18 -a 1 -x {0.0 3.0 -1 ------- null}
r -t 0.897925176081422 -s 2 -d 3 -p poisson -e 1500 -c 1 -i 17 -a 1 -x {0.0 3.0 17 ------- null}
r -t 0.899925176081422 -s 0 -d 2 -p poisson -e 1500 -c 1 -i 19 -a 1 -x {0.0 3.0 19 ------- null}
+ -t 0.899925176081422 -s 2 -d 3 -p poisson -e 1500 -c 1 -i 19 -a 1 -x {0.0 3.0 19 ------- null}
- -t 0.899925176081422 -s 2 -d 3 -p poisson -e 1500 -c 1 -i 19 -a 1 -x {0.0 3.0 19 ------- null}
h -t 0.899925176081422 -s 2 -d 3 -p poisson -e 1500 -c 1 -i 19 -a 1 -x {0.0 3.0 -1 ------- null}
+ -t 0.903329637808053 -s 0 -d 2 -p poisson -e 1500 -c 1 -i 20 -a 1 -x {0.0 3.0 20 ------- null}
- -t 0.903329637808053 -s 0 -d 2 -p poisson -e 1500 -c 1 -i 20 -a 1 -x {0.0 3.0 20 ------- null}
h -t 0.903329637808053 -s 0 -d 2 -p poisson -e 1500 -c 1 -i 20 -a 1 -x {0.0 3.0 -1 ------- null}
+ -t 0.90590239255453 -s 0 -d 2 -p poisson -e 1500 -c 1 -i 21 -a 1 -x {0.0 3.0 21 ------- null}
r -t 0.909925176081422 -s 2 -d 3 -p poisson -e 1500 -c 1 -i 18 -a 1 -x {0.0 3.0 18 ------- null}
- -t 0.915329637808053 -s 0 -d 2 -p poisson -e 1500 -c 1 -i 21 -a 1 -x {0.0 3.0 21 ------- null}
h -t 0.915329637808053 -s 0 -d 2 -p poisson -e 1500 -c 1 -i 21 -a 1 -x {0.0 3.0 -1 ------- null}
+ -t 0.918543500706722 -s 0 -d 2 -p poisson -e 1500 -c 1 -i 22 -a 1 -x {0.0 3.0 22 ------- null}
r -t 0.921925176081422 -s 2 -d 3 -p poisson -e 1500 -c 1 -i 19 -a 1 -x {0.0 3.0 19 ------- null}
r -t 0.925329637808053 -s 0 -d 2 -p poisson -e 1500 -c 1 -i 20 -a 1 -x {0.0 3.0 20 ------- null}
+ -t 0.925329637808053 -s 2 -d 3 -p poisson -e 1500 -c 1 -i 20 -a 1 -x {0.0 3.0 20 ------- null}
- -t 0.925329637808053 -s 2 -d 3 -p poisson -e 1500 -c 1 -i 20 -a 1 -x {0.0 3.0 20 ------- null}
h -t 0.925329637808053 -s 2 -d 3 -p poisson -e 1500 -c 1 -i 20 -a 1 -x {0.0 3.0 -1 ------- null}
- -t 0.927329637808053 -s 0 -d 2 -p poisson -e 1500 -c 1 -i 22 -a 1 -x {0.0 3.0 22 ------- null}
h -t 0.927329637808053 -s 0 -d 2 -p poisson -e 1500 -c 1 -i 22 -a 1 -x {0.0 3.0 -1 ------- null}
+ -t 0.934796959089628 -s 0 -d 2 -p poisson -e 1500 -c 1 -i 23 -a 1 -x {0.0 3.0 23 ------- null}
r -t 0.937329637808053 -s 0 -d 2 -p poisson -e 1500 -c 1 -i 21 -a 1 -x {0.0 3.0 21 ------- null}
+ -t 0.937329637808053 -s 2 -d 3 -p poisson -e 1500 -c 1 -i 21 -a 1 -x {0.0 3.0 21 ------- null}
- -t 0.937329637808053 -s 2 -d 3 -p poisson -e 1500 -c 1 -i 21 -a 1 -x {0.0 3.0 21 ------- null}
h -t 0.937329637808053 -s 2 -d 3 -p poisson -e 1500 -c 1 -i 21 -a 1 -x {0.0 3.0 -1 ------- null}
- -t 0.939329637808053 -s 0 -d 2 -p poisson -e 1500 -c 1 -i 23 -a 1 -x {0.0 3.0 23 ------- null}
h -t 0.939329637808053 -s 0 -d 2 -p poisson -e 1500 -c 1 -i 23 -a 1 -x {0.0 3.0 -1 ------- null}
+ -t 0.945534666328827 -s 0 -d 2 -p poisson -e 1500 -c 1 -i 24 -a 1 -x {0.0 3.0 24 ------- null}
r -t 0.947329637808053 -s 2 -d 3 -p poisson -e 1500 -c 1 -i 20 -a 1 -x {0.0 3.0 20 ------- null}
r -t 0.949329637808053 -s 0 -d 2 -p poisson -e 1500 -c 1 -i 22 -a 1 -x {0.0 3.0 22 ------- null}
+ -t 0.949329637808053 -s 2 -d 3 -p poisson -e 1500 -c 1 -i 22 -a 1 -x {0.0 3.0 22 ------- null}
- -t 0.949329637808053 -s 2 -d 3 -p poisson -e 1500 -c 1 -i 22 -a 1 -x {0.0 3.0 22 ------- null}
h -t 0.949329637808053 -s 2 -d 3 -p poisson -e 1500 -c 1 -i 22 -a 1 -x {0.0 3.0 -1 ------- null}
- -t 0.951329637808053 -s 0 -d 2 -p poisson -e 1500 -c 1 -i 24 -a 1 -x {0.0 3.0 24 ------- null}
h -t 0.951329637808053 -s 0 -d 2 -p poisson -e 1500 -c 1 -i 24 -a 1 -x {0.0 3.0 -1 ------- null}
+ -t 0.953413006178256 -s 0 -d 2 -p poisson -e 1500 -c 1 -i 25 -a 1 -x {0.0 3.0 25 ------- null}
r -t 0.959329637808053 -s 2 -d 3 -p poisson -e 1500 -c 1 -i 21 -a 1 -x {0.0 3.0 21 ------- null}
r -t 0.961329637808053 -s 0 -d 2 -p poisson -e 1500 -c 1 -i 23 -a 1 -x {0.0 3.0 23 ------- null}
+ -t 0.961329637808053 -s 2 -d 3 -p poisson -e 1500 -c 1 -i 23 -a 1 -x {0.0 3.0 23 ------- null}
- -t 0.961329637808053 -s 2 -d 3 -p poisson -e 1500 -c 1 -i 23 -a 1 -x {0.0 3.0 23 ------- null}
h -t 0.961329637808053 -s 2 -d 3 -p poisson -e 1500 -c 1 -i 23 -a 1 -x {0.0 3.0 -1 ------- null}
+ -t 0.96257285680134 -s 0 -d 2 -p poisson -e 1500 -c 1 -i 26 -a 1 -x {0.0 3.0 26 ------- null}
- -t 0.963329637808053 -s 0 -d 2 -p poisson -e 1500 -c 1 -i 25 -a 1 -x {0.0 3.0 25 ------- null}
h -t 0.963329637808053 -s 0 -d 2 -p poisson -e 1500 -c 1 -i 25 -a 1 -x {0.0 3.0 -1 ------- null}
+ -t 0.96698556906774 -s 0 -d 2 -p poisson -e 1500 -c 1 -i 27 -a 1 -x {0.0 3.0 27 ------- null}
+ -t 0.968766632579401 -s 0 -d 2 -p poisson -e 1500 -c 1 -i 28 -a 1 -x {0.0 3.0 28 ------- null}
+ -t 0.970861370586844 -s 0 -d 2 -p poisson -e 1500 -c 1 -i 29 -a 1 -x {0.0 3.0 29 ------- null}
r -t 0.971329637808053 -s 2 -d 3 -p poisson -e 1500 -c 1 -i 22 -a 1 -x {0.0 3.0 22 ------- null}
r -t 0.973329637808053 -s 0 -d 2 -p poisson -e 1500 -c 1 -i 24 -a 1 -x {0.0 3.0 24 ------- null}
+ -t 0.973329637808053 -s 2 -d 3 -p poisson -e 1500 -c 1 -i 24 -a 1 -x {0.0 3.0 24 ------- null}
- -t 0.973329637808053 -s 2 -d 3 -p poisson -e 1500 -c 1 -i 24 -a 1 -x {0.0 3.0 24 ------- null}
h -t 0.973329637808053 -s 2 -d 3 -p poisson -e 1500 -c 1 -i 24 -a 1 -x {0.0 3.0 -1 ------- null}
- -t 0.975329637808053 -s 0 -d 2 -p poisson -e 1500 -c 1 -i 26 -a 1 -x {0.0 3.0 26 ------- null}
h -t 0.975329637808053 -s 0 -d 2 -p poisson -e 1500 -c 1 -i 26 -a 1 -x {0.0 3.0 -1 ------- null}
r -t 0.983329637808053 -s 2 -d 3 -p poisson -e 1500 -c 1 -i 23 -a 1 -x {0.0 3.0 23 ------- null}
r -t 0.985329637808053 -s 0 -d 2 -p poisson -e 1500 -c 1 -i 25 -a 1 -x {0.0 3.0 25 ------- null}
+ -t 0.985329637808053 -s 2 -d 3 -p poisson -e 1500 -c 1 -i 25 -a 1 -x {0.0 3.0 25 ------- null}
- -t 0.985329637808053 -s 2 -d 3 -p poisson -e 1500 -c 1 -i 25 -a 1 -x {0.0 3.0 25 ------- null}
h -t 0.985329637808053 -s 2 -d 3 -p poisson -e 1500 -c 1 -i 25 -a 1 -x {0.0 3.0 -1 ------- null}
- -t 0.987329637808053 -s 0 -d 2 -p poisson -e 1500 -c 1 -i 27 -a 1 -x {0.0 3.0 27 ------- null}
h -t 0.987329637808053 -s 0 -d 2 -p poisson -e 1500 -c 1 -i 27 -a 1 -x {0.0 3.0 -1 ------- null}
+ -t 0.989186850898749 -s 0 -d 2 -p poisson -e 1500 -c 1 -i 30 -a 1 -x {0.0 3.0 30 ------- null}
r -t 0.995329637808053 -s 2 -d 3 -p poisson -e 1500 -c 1 -i 24 -a 1 -x {0.0 3.0 24 ------- null}
r -t 0.997329637808053 -s 0 -d 2 -p poisson -e 1500 -c 1 -i 26 -a 1 -x {0.0 3.0 26 ------- null}
+ -t 0.997329637808053 -s 2 -d 3 -p poisson -e 1500 -c 1 -i 26 -a 1 -x {0.0 3.0 26 ------- null}
- -t 0.997329637808053 -s 2 -d 3 -p poisson -e 1500 -c 1 -i 26 -a 1 -x {0.0 3.0 26 ------- null}
h -t 0.997329637808053 -s 2 -d 3 -p poisson -e 1500 -c 1 -i 26 -a 1 -x {0.0 3.0 -1 ------- null}
- -t 0.999329637808053 -s 0 -d 2 -p poisson -e 1500 -c 1 -i 28 -a 1 -x {0.0 3.0 28 ------- null}
h -t 0.999329637808053 -s 0 -d 2 -p poisson -e 1500 -c 1 -i 28 -a 1 -x {0.0 3.0 -1 ------- null}
+ -t 1 -s 1 -d 2 -p cbr -e 500 -c 2 -i 31 -a 2 -x {1.0 3.0 0 ------- null}
- -t 1 -s 1 -d 2 -p cbr -e 500 -c 2 -i 31 -a 2 -x {1.0 3.0 0 ------- null}
h -t 1 -s 1 -d 2 -p cbr -e 500 -c 2 -i 31 -a 2 -x {1.0 3.0 -1 ------- null}
+ -t 1.005 -s 1 -d 2 -p cbr -e 500 -c 2 -i 32 -a 2 -x {1.0 3.0 1 ------- null}
- -t 1.005 -s 1 -d 2 -p cbr -e 500 -c 2 -i 32 -a 2 -x {1.0 3.0 1 ------- null}
h -t 1.005 -s 1 -d 2 -p cbr -e 500 -c 2 -i 32 -a 2 -x {1.0 3.0 -1 ------- null}
+ -t 1.00625112171164 -s 0 -d 2 -p poisson -e 1500 -c 1 -i 33 -a 1 -x {0.0 3.0 31 ------- null}
r -t 1.00732963780805 -s 2 -d 3 -p poisson -e 1500 -c 1 -i 25 -a 1 -x {0.0 3.0 25 ------- null}
+ -t 1.00818573711544 -s 0 -d 2 -p poisson -e 1500 -c 1 -i 34 -a 1 -x {0.0 3.0 32 ------- null}
r -t 1.00932963780805 -s 0 -d 2 -p poisson -e 1500 -c 1 -i 27 -a 1 -x {0.0 3.0 27 ------- null}
+ -t 1.00932963780805 -s 2 -d 3 -p poisson -e 1500 -c 1 -i 27 -a 1 -x {0.0 3.0 27 ------- null}
- -t 1.00932963780805 -s 2 -d 3 -p poisson -e 1500 -c 1 -i 27 -a 1 -x {0.0 3.0 27 ------- null}
h -t 1.00932963780805 -s 2 -d 3 -p poisson -e 1500 -c 1 -i 27 -a 1 -x {0.0 3.0 -1 ------- null}
+ -t 1.01 -s 1 -d 2 -p cbr -e 500 -c 2 -i 35 -a 2 -x {1.0 3.0 2 ------- null}
- -t 1.01 -s 1 -d 2 -p cbr -e 500 -c 2 -i 35 -a 2 -x {1.0 3.0 2 ------- null}
h -t 1.01 -s 1 -d 2 -p cbr -e 500 -c 2 -i 35 -a 2 -x {1.0 3.0 -1 ------- null}
- -t 1.01132963780805 -s 0 -d 2 -p poisson -e 1500 -c 1 -i 29 -a 1 -x {0.0 3.0 29 ------- null}
h -t 1.01132963780805 -s 0 -d 2 -p poisson -e 1500 -c 1 -i 29 -a 1 -x {0.0 3.0 -1 ------- null}
+ -t 1.01286056167385 -s 0 -d 2 -p poisson -e 1500 -c 1 -i 36 -a 1 -x {0.0 3.0 33 ------- null}
r -t 1.014 -s 1 -d 2 -p cbr -e 500 -c 2 -i 31 -a 2 -x {1.0 3.0 0 ------- null}
+ -t 1.014 -s 2 -d 3 -p cbr -e 500 -c 2 -i 31 -a 2 -x {1.0 3.0 0 ------- null}
+ -t 1.015 -s 1 -d 2 -p cbr -e 500 -c 2 -i 37 -a 2 -x {1.0 3.0 3 ------- null}
- -t 1.015 -s 1 -d 2 -p cbr -e 500 -c 2 -i 37 -a 2 -x {1.0 3.0 3 ------- null}
h -t 1.015 -s 1 -d 2 -p cbr -e 500 -c 2 -i 37 -a 2 -x {1.0 3.0 -1 ------- null}
+ -t 1.01611861505384 -s 0 -d 2 -p poisson -e 1500 -c 1 -i 38 -a 1 -x {0.0 3.0 34 ------- null}
+ -t 1.01731718216134 -s 0 -d 2 -p poisson -e 1500 -c 1 -i 39 -a 1 -x {0.0 3.0 35 ------- null}
r -t 1.019 -s 1 -d 2 -p cbr -e 500 -c 2 -i 32 -a 2 -x {1.0 3.0 1 ------- null}
+ -t 1.019 -s 2 -d 3 -p cbr -e 500 -c 2 -i 32 -a 2 -x {1.0 3.0 1 ------- null}
r -t 1.01932963780805 -s 2 -d 3 -p poisson -e 1500 -c 1 -i 26 -a 1 -x {0.0 3.0 26 ------- null}
+ -t 1.02 -s 1 -d 2 -p cbr -e 500 -c 2 -i 40 -a 2 -x {1.0 3.0 4 ------- null}
- -t 1.02 -s 1 -d 2 -p cbr -e 500 -c 2 -i 40 -a 2 -x {1.0 3.0 4 ------- null}
h -t 1.02 -s 1 -d 2 -p cbr -e 500 -c 2 -i 40 -a 2 -x {1.0 3.0 -1 ------- null}
r -t 1.02132963780805 -s 0 -d 2 -p poisson -e 1500 -c 1 -i 28 -a 1 -x {0.0 3.0 28 ------- null}
+ -t 1.02132963780805 -s 2 -d 3 -p poisson -e 1500 -c 1 -i 28 -a 1 -x {0.0 3.0 28 ------- null}
- -t 1.02132963780805 -s 2 -d 3 -p cbr -e 500 -c 2 -i 31 -a 2 -x {1.0 3.0 0 ------- null}
h -t 1.02132963780805 -s 2 -d 3 -p cbr -e 500 -c 2 -i 31 -a 2 -x {1.0 3.0 -1 ------- null}
- -t 1.02332963780805 -s 0 -d 2 -p poisson -e 1500 -c 1 -i 30 -a 1 -x {0.0 3.0 30 ------- null}
h -t 1.02332963780805 -s 0 -d 2 -p poisson -e 1500 -c 1 -i 30 -a 1 -x {0.0 3.0 -1 ------- null}
r -t 1.024 -s 1 -d 2 -p cbr -e 500 -c 2 -i 35 -a 2 -x {1.0 3.0 2 ------- null}
+ -t 1.024 -s 2 -d 3 -p cbr -e 500 -c 2 -i 35 -a 2 -x {1.0 3.0 2 ------- null}
+ -t 1.025 -s 1 -d 2 -p cbr -e 500 -c 2 -i 41 -a 2 -x {1.0 3.0 5 ------- null}
- -t 1.025 -s 1 -d 2 -p cbr -e 500 -c 2 -i 41 -a 2 -x {1.0 3.0 5 ------- null}
h -t 1.025 -s 1 -d 2 -p cbr -e 500 -c 2 -i 41 -a 2 -x {1.0 3.0 -1 ------- null}
- -t 1.02532963780805 -s 2 -d 3 -p poisson -e 1500 -c 1 -i 28 -a 1 -x {0.0 3.0 28 ------- null}
h -t 1.02532963780805 -s 2 -d 3 -p poisson -e 1500 -c 1 -i 28 -a 1 -x {0.0 3.0 -1 ------- null}
+ -t 1.02814823048725 -s 0 -d 2 -p poisson -e 1500 -c 1 -i 42 -a 1 -x {0.0 3.0 36 ------- null}
r -t 1.029 -s 1 -d 2 -p cbr -e 500 -c 2 -i 37 -a 2 -x {1.0 3.0 3 ------- null}
+ -t 1.029 -s 2 -d 3 -p cbr -e 500 -c 2 -i 37 -a 2 -x {1.0 3.0 3 ------- null}
+ -t 1.03 -s 1 -d 2 -p cbr -e 500 -c 2 -i 43 -a 2 -x {1.0 3.0 6 ------- null}
- -t 1.03 -s 1 -d 2 -p cbr -e 500 -c 2 -i 43 -a 2 -x {1.0 3.0 6 ------- null}
h -t 1.03 -s 1 -d 2 -p cbr -e 500 -c 2 -i 43 -a 2 -x {1.0 3.0 -1 ------- null}
r -t 1.03132963780805 -s 2 -d 3 -p poisson -e 1500 -c 1 -i 27 -a 1 -x {0.0 3.0 27 ------- null}
r -t 1.03332963780805 -s 0 -d 2 -p poisson -e 1500 -c 1 -i 29 -a 1 -x {0.0 3.0 29 ------- null}
+ -t 1.03332963780805 -s 2 -d 3 -p poisson -e 1500 -c 1 -i 29 -a 1 -x {0.0 3.0 29 ------- null}
r -t 1.034 -s 1 -d 2 -p cbr -e 500 -c 2 -i 40 -a 2 -x {1.0 3.0 4 ------- null}
+ -t 1.034 -s 2 -d 3 -p cbr -e 500 -c 2 -i 40 -a 2 -x {1.0 3.0 4 ------- null}
+ -t 1.035 -s 1 -d 2 -p cbr -e 500 -c 2 -i 44 -a 2 -x {1.0 3.0 7 ------- null}
- -t 1.035 -s 1 -d 2 -p cbr -e 500 -c 2 -i 44 -a 2 -x {1.0 3.0 7 ------- null}
h -t 1.035 -s 1 -d 2 -p cbr -e 500 -c 2 -i 44 -a 2 -x {1.0 3.0 -1 ------- null}
r -t 1.03532963780805 -s 2 -d 3 -p cbr -e 500 -c 2 -i 31 -a 2 -x {1.0 3.0 0 ------- null}
- -t 1.03532963780805 -s 0 -d 2 -p poisson -e 1500 -c 1 -i 33 -a 1 -x {0.0 3.0 31 ------- null}
h -t 1.03532963780805 -s 0 -d 2 -p poisson -e 1500 -c 1 -i 33 -a 1 -x {0.0 3.0 -1 ------- null}
- -t 1.03732963780805 -s 2 -d 3 -p cbr -e 500 -c 2 -i 32 -a 2 -x {1.0 3.0 1 ------- null}
h -t 1.03732963780805 -s 2 -d 3 -p cbr -e 500 -c 2 -i 32 -a 2 -x {1.0 3.0 -1 ------- null}
r -t 1.039 -s 1 -d 2 -p cbr -e 500 -c 2 -i 41 -a 2 -x {1.0 3.0 5 ------- null}
+ -t 1.039 -s 2 -d 3 -p cbr -e 500 -c 2 -i 41 -a 2 -x {1.0 3.0 5 ------- null}
+ -t 1.04 -s 1 -d 2 -p cbr -e 500 -c 2 -i 45 -a 2 -x {1.0 3.0 8 ------- null}
- -t 1.04 -s 1 -d 2 -p cbr -e 500 -c 2 -i 45 -a 2 -x {1.0 3.0 8 ------- null}
h -t 1.04 -s 1 -d 2 -p cbr -e 500 -c 2 -i 45 -a 2 -x {1.0 3.0 -1 ------- null}
- -t 1.04132963780805 -s 2 -d 3 -p poisson -e 1500 -c 1 -i 29 -a 1 -x {0.0 3.0 29 ------- null}
h -t 1.04132963780805 -s 2 -d 3 -p poisson -e 1500 -c 1 -i 29 -a 1 -x {0.0 3.0 -1 ------- null}
r -t 1.044 -s 1 -d 2 -p cbr -e 500 -c 2 -i 43 -a 2 -x {1.0 3.0 6 ------- null}
+ -t 1.044 -s 2 -d 3 -p cbr -e 500 -c 2 -i 43 -a 2 -x {1.0 3.0 6 ------- null}
+ -t 1.045 -s 1 -d 2 -p cbr -e 500 -c 2 -i 46 -a 2 -x {1.0 3.0 9 ------- null}
- -t 1.045 -s 1 -d 2 -p cbr -e 500 -c 2 -i 46 -a 2 -x {1.0 3.0 9 ------- null}
h -t 1.045 -s 1 -d 2 -p cbr -e 500 -c 2 -i 46 -a 2 -x {1.0 3.0 -1 ------- null}
r -t 1.04532963780805 -s 0 -d 2 -p poisson -e 1500 -c 1 -i 30 -a 1 -x {0.0 3.0 30 ------- null}
+ -t 1.04532963780805 -s 2 -d 3 -p poisson -e 1500 -c 1 -i 30 -a 1 -x {0.0 3.0 30 ------- null}
r -t 1.04732963780805 -s 2 -d 3 -p poisson -e 1500 -c 1 -i 28 -a 1 -x {0.0 3.0 28 ------- null}
- -t 1.04732963780805 -s 0 -d 2 -p poisson -e 1500 -c 1 -i 34 -a 1 -x {0.0 3.0 32 ------- null}
h -t 1.04732963780805 -s 0 -d 2 -p poisson -e 1500 -c 1 -i 34 -a 1 -x {0.0 3.0 -1 ------- null}
r -t 1.049 -s 1 -d 2 -p cbr -e 500 -c 2 -i 44 -a 2 -x {1.0 3.0 7 ------- null}
+ -t 1.049 -s 2 -d 3 -p cbr -e 500 -c 2 -i 44 -a 2 -x {1.0 3.0 7 ------- null}
+ -t 1.05 -s 1 -d 2 -p cbr -e 500 -c 2 -i 47 -a 2 -x {1.0 3.0 10 ------- null}
- -t 1.05 -s 1 -d 2 -p cbr -e 500 -c 2 -i 47 -a 2 -x {1.0 3.0 10 ------- null}
h -t 1.05 -s 1 -d 2 -p cbr -e 500 -c 2 -i 47 -a 2 -x {1.0 3.0 -1 ------- null}
r -t 1.05132963780805 -s 2 -d 3 -p cbr -e 500 -c 2 -i 32 -a 2 -x {1.0 3.0 1 ------- null}
- -t 1.05332963780805 -s 2 -d 3 -p cbr -e 500 -c 2 -i 35 -a 2 -x {1.0 3.0 2 ------- null}
h -t 1.05332963780805 -s 2 -d 3 -p cbr -e 500 -c 2 -i 35 -a 2 -x {1.0 3.0 -1 ------- null}
r -t 1.054 -s 1 -d 2 -p cbr -e 500 -c 2 -i 45 -a 2 -x {1.0 3.0 8 ------- null}
+ -t 1.054 -s 2 -d 3 -p cbr -e 500 -c 2 -i 45 -a 2 -x {1.0 3.0 8 ------- null}
+ -t 1.05472328899624 -s 0 -d 2 -p poisson -e 1500 -c 1 -i 48 -a 1 -x {0.0 3.0 37 ------- null}
+ -t 1.055 -s 1 -d 2 -p cbr -e 500 -c 2 -i 49 -a 2 -x {1.0 3.0 11 ------- null}
- -t 1.055 -s 1 -d 2 -p cbr -e 500 -c 2 -i 49 -a 2 -x {1.0 3.0 11 ------- null}