V -t * -v 1.0a5 -a 0
A -t * -n 1 -p 0 -o 0xffffffff -c 31 -a 1
A -t * -h 1 -m 2147483647 -s 0
n -t * -a 0 -s 0 -S UP -v circle -c black -i black
n -t * -a 1 -s 1 -S UP -v circle -c black -i black
l -t * -s 0 -d 1 -S UP -r 1000000 -D 0.01 -c black -o right
q -t * -s 1 -d 0 -a 0.5
q -t * -s 0 -d 1 -a 0.5
+ -t 0 -s 0 -d 1 -p poisson -e 500 -c 0 -i 0 -a 0 -x {0.0 1.0 0 ------- null}
- -t 0 -s 0 -d 1 -p poisson -e 500 -c 0 -i 0 -a 0 -x {0.0 1.0 0 ------- null}
h -t 0 -s 0 -d 1 -p poisson -e 500 -c 0 -i 0 -a 0 -x {0.0 1.0 -1 ------- null}
r -t 0.014 -s 0 -d 1 -p poisson -e 500 -c 0 -i 0 -a 0 -x {0.0 1.0 0 ------- null}
+ -t 0.0639024733883276 -s 0 -d 1 -p poisson -e 500 -c 0 -i 1 -a 0 -x {0.0 1.0 1 ------- null}
- -t 0.0639024733883276 -s 0 -d 1 -p poisson -e 500 -c 0 -i 1 -a 0 -x {0.0 1.0 1 ------- null}
h -t 0.0639024733883276 -s 0 -d 1 -p poisson -e 500 -c 0 -i 1 -a 0 -x {0.0 1.0 -1 ------- null}
+ -t 0.0686000857671096 -s 0 -d 1 -p poisson -e 500 -c 0 -i 2 -a 0 -x {0.0 1.0 2 ------- null}
- -t 0.0686000857671096 -s 0 -d 1 -p poisson -e 500 -c 0 -i 2 -a 0 -x {0.0 1.0 2 ------- null}
h -t 0.0686000857671096 -s 0 -d 1 -p poisson -e 500 -c 0 -i 2 -a 0 -x {0.0 1.0 -1 ------- null}
r -t 0.0779024733883276 -s 0 -d 1 -p poisson -e 500 -c 0 -i 1 -a 0 -x {0.0 1.0 1 ------- null}
r -t 0.0826000857671096 -s 0 -d 1 -p poisson -e 500 -c 0 -i 2 -a 0 -x {0.0 1.0 2 ------- null}
+ -t 0.102633566993026 -s 0 -d 1 -p poisson -e 500 -c 0 -i 3 -a 0 -x {0.0 1.0 3 ------- null}
- -t 0.102633566993026 -s 0 -d 1 -p poisson -e 500 -c 0 -i 3 -a 0 -x {0.0 1.0 3 ------- null}
h -t 0.102633566993026 -s 0 -d 1 -p poisson -e 500 -c 0 -i 3 -a 0 -x {0.0 1.0 -1 ------- null}
r -t 0.116633566993026 -s 0 -d 1 -p poisson -e 500 -c 0 -i 3 -a 0 -x {0.0 1.0 3 ------- null}
+ -t 0.122065770537068 -s 0 -d 1 -p poisson -e 500 -c 0 -i 4 -a 0 -x {0.0 1.0 4 ------- null}
- -t 0.122065770537068 -s 0 -d 1 -p poisson -e 500 -c 0 -i 4 -a 0 -x {0.0 1.0 4 ------- null}
h -t 0.122065770537068 -s 0 -d 1 -p poisson -e 500 -c 0 -i 4 -a 0 -x {0.0 1.0 -1 ------- null}
+ -t 0.128612309130896 -s 0 -d 1 -p poisson -e 500 -c 0 -i 5 -a 0 -x {0.0 1.0 5 ------- null}
- -t 0.128612309130896 -s 0 -d 1 -p poisson -e 500 -c 0 -i 5 -a 0 -x {0.0 1.0 5 ------- null}
h -t 0.128612309130896 -s 0 -d 1 -p poisson -e 500 -c 0 -i 5 -a 0 -x {0.0 1.0 -1 ------- null}
+ -t 0.130405907467366 -s 0 -d 1 -p poisson -e 500 -c 0 -i 6 -a 0 -x {0.0 1.0 6 ------- null}
- -t 0.132612309130896 -s 0 -d 1 -p poisson -e 500 -c 0 -i 6 -a 0 -x {0.0 1.0 6 ------- null}
h -t 0.132612309130896 -s 0 -d 1 -p poisson -e 500 -c 0 -i 6 -a 0 -x {0.0 1.0 -1 ------- null}
r -t 0.136065770537068 -s 0 -d 1 -p poisson -e 500 -c 0 -i 4 -a 0 -x {0.0 1.0 4 ------- null}
+ -t 0.139699301317234 -s 0 -d 1 -p poisson -e 500 -c 0 -i 7 -a 0 -x {0.0 1.0 7 ------- null}
- -t 0.139699301317234 -s 0 -d 1 -p poisson -e 500 -c 0 -i 7 -a 0 -x {0.0 1.0 7 ------- null}
h -t 0.139699301317234 -s 0 -d 1 -p poisson -e 500 -c 0 -i 7 -a 0 -x {0.0 1.0 -1 ------- null}
+ -t 0.141321362899445 -s 0 -d 1 -p poisson -e 500 -c 0 -i 8 -a 0 -x {0.0 1.0 8 ------- null}
r -t 0.142612309130896 -s 0 -d 1 -p poisson -e 500 -c 0 -i 5 -a 0 -x {0.0 1.0 5 ------- null}
- -t 0.143699301317234 -s 0 -d 1 -p poisson -e 500 -c 0 -i 8 -a 0 -x {0.0 1.0 8 ------- null}
h -t 0.143699301317234 -s 0 -d 1 -p poisson -e 500 -c 0 -i 8 -a 0 -x {0.0 1.0 -1 ------- null}
r -t 0.146612309130896 -s 0 -d 1 -p poisson -e 500 -c 0 -i 6 -a 0 -x {0.0 1.0 6 ------- null}
+ -t 0.152920289902504 -s 0 -d 1 -p poisson -e 500 -c 0 -i 9 -a 0 -x {0.0 1.0 9 ------- null}
- -t 0.152920289902504 -s 0 -d 1 -p poisson -e 500 -c 0 -i 9 -a 0 -x {0.0 1.0 9 ------- null}
h -t 0.152920289902504 -s 0 -d 1 -p poisson -e 500 -c 0 -i 9 -a 0 -x {0.0 1.0 -1 ------- null}
r -t 0.153699301317234 -s 0 -d 1 -p poisson -e 500 -c 0 -i 7 -a 0 -x {0.0 1.0 7 ------- null}
+ -t 0.156504785024735 -s 0 -d 1 -p poisson -e 500 -c 0 -i 10 -a 0 -x {0.0 1.0 10 ------- null}
- -t 0.156920289902504 -s 0 -d 1 -p poisson -e 500 -c 0 -i 10 -a 0 -x {0.0 1.0 10 ------- null}
h -t 0.156920289902504 -s 0 -d 1 -p poisson -e 500 -c 0 -i 10 -a 0 -x {0.0 1.0 -1 ------- null}
r -t 0.157699301317234 -s 0 -d 1 -p poisson -e 500 -c 0 -i 8 -a 0 -x {0.0 1.0 8 ------- null}
+ -t 0.165898050498362 -s 0 -d 1 -p poisson -e 500 -c 0 -i 11 -a 0 -x {0.0 1.0 11 ------- null}
- -t 0.165898050498362 -s 0 -d 1 -p poisson -e 500 -c 0 -i 11 -a 0 -x {0.0 1.0 11 ------- null}
h -t 0.165898050498362 -s 0 -d 1 -p poisson -e 500 -c 0 -i 11 -a 0 -x {0.0 1.0 -1 ------- null}
r -t 0.166920289902504 -s 0 -d 1 -p poisson -e 500 -c 0 -i 9 -a 0 -x {0.0 1.0 9 ------- null}
+ -t 0.16732796837738 -s 0 -d 1 -p poisson -e 500 -c 0 -i 12 -a 0 -x {0.0 1.0 12 ------- null}
- -t 0.169898050498362 -s 0 -d 1 -p poisson -e 500 -c 0 -i 12 -a 0 -x {0.0 1.0 12 ------- null}
h -t 0.169898050498362 -s 0 -d 1 -p poisson -e 500 -c 0 -i 12 -a 0 -x {0.0 1.0 -1 ------- null}
r -t 0.170920289902504 -s 0 -d 1 -p poisson -e 500 -c 0 -i 10 -a 0 -x {0.0 1.0 10 ------- null}
r -t 0.179898050498362 -s 0 -d 1 -p poisson -e 500 -c 0 -i 11 -a 0 -x {0.0 1.0 11 ------- null}
+ -t 0.181783989324253 -s 0 -d 1 -p poisson -e 500 -c 0 -i 13 -a 0 -x {0.0 1.0 13 ------- null}
- -t 0.181783989324253 -s 0 -d 1 -p poisson -e 500 -c 0 -i 13 -a 0 -x {0.0 1.0 13 ------- null}
h -t 0.181783989324253 -s 0 -d 1 -p poisson -e 500 -c 0 -i 13 -a 0 -x {0.0 1.0 -1 ------- null}
r -t 0.183898050498362 -s 0 -d 1 -p poisson -e 500 -c 0 -i 12 -a 0 -x {0.0 1.0 12 ------- null}
r -t 0.195783989324253 -s 0 -d 1 -p poisson -e 500 -c 0 -i 13 -a 0 -x {0.0 1.0 13 ------- null}
+ -t 0.206994744046637 -s 0 -d 1 -p poisson -e 500 -c 0 -i 14 -a 0 -x {0.0 1.0 14 ------- null}
- -t 0.206994744046637 -s 0 -d 1 -p poisson -e 500 -c 0 -i 14 -a 0 -x {0.0 1.0 14 ------- null}
h -t 0.206994744046637 -s 0 -d 1 -p poisson -e 500 -c 0 -i 14 -a 0 -x {0.0 1.0 -1 ------- null}
+ -t 0.210564195173405 -s 0 -d 1 -p poisson -e 500 -c 0 -i 15 -a 0 -x {0.0 1.0 15 ------- null}
- -t 0.210994744046637 -s 0 -d 1 -p poisson -e 500 -c 0 -i 15 -a 0 -x {0.0 1.0 15 ------- null}
h -t 0.210994744046637 -s 0 -d 1 -p poisson -e 500 -c 0 -i 15 -a 0 -x {0.0 1.0 -1 ------- null}
r -t 0.220994744046637 -s 0 -d 1 -p poisson -e 500 -c 0 -i 14 -a 0 -x {0.0 1.0 14 ------- null}
r -t 0.224994744046637 -s 0 -d 1 -p poisson -e 500 -c 0 -i 15 -a 0 -x {0.0 1.0 15 ------- null}
+ -t 0.227950117387614 -s 0 -d 1 -p poisson -e 500 -c 0 -i 16 -a 0 -x {0.0 1.0 16 ------- null}
- -t 0.227950117387614 -s 0 -d 1 -p poisson -e 500 -c 0 -i 16 -a 0 -x {0.0 1.0 16 ------- null}
h -t 0.227950117387614 -s 0 -d 1 -p poisson -e 500 -c 0 -i 16 -a 0 -x {0.0 1.0 -1 ------- null}
+ -t 0.229159233953984 -s 0 -d 1 -p poisson -e 500 -c 0 -i 17 -a 0 -x {0.0 1.0 17 ------- null}
- -t 0.231950117387614 -s 0 -d 1 -p poisson -e 500 -c 0 -i 17 -a 0 -x {0.0 1.0 17 ------- null}
h -t 0.231950117387614 -s 0 -d 1 -p poisson -e 500 -c 0 -i 17 -a 0 -x {0.0 1.0 -1 ------- null}
+ -t 0.236029887840772 -s 0 -d 1 -p poisson -e 500 -c 0 -i 18 -a 0 -x {0.0 1.0 18 ------- null}
- -t 0.236029887840772 -s 0 -d 1 -p poisson -e 500 -c 0 -i 18 -a 0 -x {0.0 1.0 18 ------- null}
h -t 0.236029887840772 -s 0 -d 1 -p poisson -e 500 -c 0 -i 18 -a 0 -x {0.0 1.0 -1 ------- null}
r -t 0.241950117387614 -s 0 -d 1 -p poisson -e 500 -c 0 -i 16 -a 0 -x {0.0 1.0 16 ------- null}
r -t 0.245950117387614 -s 0 -d 1 -p poisson -e 500 -c 0 -i 17 -a 0 -x {0.0 1.0 17 ------- null}
+ -t 0.249982549920685 -s 0 -d 1 -p poisson -e 500 -c 0 -i 19 -a 0 -x {0.0 1.0 19 ------- null}
- -t 0.249982549920685 -s 0 -d 1 -p poisson -e 500 -c 0 -i 19 -a 0 -x {0.0 1.0 19 ------- null}
h -t 0.249982549920685 -s 0 -d 1 -p poisson -e 500 -c 0 -i 19 -a 0 -x {0.0 1.0 -1 ------- null}
r -t 0.250029887840772 -s 0 -d 1 -p poisson -e 500 -c 0 -i 18 -a 0 -x {0.0 1.0 18 ------- null}
r -t 0.263982549920685 -s 0 -d 1 -p poisson -e 500 -c 0 -i 19 -a 0 -x {0.0 1.0 19 ------- null}
+ -t 0.268886425205368 -s 0 -d 1 -p poisson -e 500 -c 0 -i 20 -a 0 -x {0.0 1.0 20 ------- null}
- -t 0.268886425205368 -s 0 -d 1 -p poisson -e 500 -c 0 -i 20 -a 0 -x {0.0 1.0 20 ------- null}
h -t 0.268886425205368 -s 0 -d 1 -p poisson -e 500 -c 0 -i 20 -a 0 -x {0.0 1.0 -1 ------- null}
+ -t 0.270601595036353 -s 0 -d 1 -p poisson -e 500 -c 0 -i 21 -a 0 -x {0.0 1.0 21 ------- null}
- -t 0.272886425205368 -s 0 -d 1 -p poisson -e 500 -c 0 -i 21 -a 0 -x {0.0 1.0 21 ------- null}
h -t 0.272886425205368 -s 0 -d 1 -p poisson -e 500 -c 0 -i 21 -a 0 -x {0.0 1.0 -1 ------- null}
+ -t 0.279029000471148 -s 0 -d 1 -p poisson -e 500 -c 0 -i 22 -a 0 -x {0.0 1.0 22 ------- null}
- -t 0.279029000471148 -s 0 -d 1 -p poisson -e 500 -c 0 -i 22 -a 0 -x {0.0 1.0 22 ------- null}
h -t 0.279029000471148 -s 0 -d 1 -p poisson -e 500 -c 0 -i 22 -a 0 -x {0.0 1.0 -1 ------- null}
r -t 0.282886425205368 -s 0 -d 1 -p poisson -e 500 -c 0 -i 20 -a 0 -x {0.0 1.0 20 ------- null}
r -t 0.286886425205368 -s 0 -d 1 -p poisson -e 500 -c 0 -i 21 -a 0 -x {0.0 1.0 21 ------- null}
+ -t 0.289864639393085 -s 0 -d 1 -p poisson -e 500 -c 0 -i 23 -a 0 -x {0.0 1.0 23 ------- null}
- -t 0.289864639393085 -s 0 -d 1 -p poisson -e 500 -c 0 -i 23 -a 0 -x {0.0 1.0 23 ------- null}
h -t 0.289864639393085 -s 0 -d 1 -p poisson -e 500 -c 0 -i 23 -a 0 -x {0.0 1.0 -1 ------- null}
r -t 0.293029000471148 -s 0 -d 1 -p poisson -e 500 -c 0 -i 22 -a 0 -x {0.0 1.0 22 ------- null}
+ -t 0.297023110885885 -s 0 -d 1 -p poisson -e 500 -c 0 -i 24 -a 0 -x {0.0 1.0 24 ------- null}
- -t 0.297023110885885 -s 0 -d 1 -p poisson -e 500 -c 0 -i 24 -a 0 -x {0.0 1.0 24 ------- null}
h -t 0.297023110885885 -s 0 -d 1 -p poisson -e 500 -c 0 -i 24 -a 0 -x {0.0 1.0 -1 ------- null}
+ -t 0.302275337452171 -s 0 -d 1 -p poisson -e 500 -c 0 -i 25 -a 0 -x {0.0 1.0 25 ------- null}
- -t 0.302275337452171 -s 0 -d 1 -p poisson -e 500 -c 0 -i 25 -a 0 -x {0.0 1.0 25 ------- null}
h -t 0.302275337452171 -s 0 -d 1 -p poisson -e 500 -c 0 -i 25 -a 0 -x {0.0 1.0 -1 ------- null}
r -t 0.303864639393085 -s 0 -d 1 -p poisson -e 500 -c 0 -i 23 -a 0 -x {0.0 1.0 23 ------- null}
+ -t 0.308381904534226 -s 0 -d 1 -p poisson -e 500 -c 0 -i 26 -a 0 -x {0.0 1.0 26 ------- null}
- -t 0.308381904534226 -s 0 -d 1 -p poisson -e 500 -c 0 -i 26 -a 0 -x {0.0 1.0 26 ------- null}
h -t 0.308381904534226 -s 0 -d 1 -p poisson -e 500 -c 0 -i 26 -a 0 -x {0.0 1.0 -1 ------- null}
r -t 0.311023110885885 -s 0 -d 1 -p poisson -e 500 -c 0 -i 24 -a 0 -x {0.0 1.0 24 ------- null}
+ -t 0.311323712711826 -s 0 -d 1 -p poisson -e 500 -c 0 -i 27 -a 0 -x {0.0 1.0 27 ------- null}
- -t 0.312381904534226 -s 0 -d 1 -p poisson -e 500 -c 0 -i 27 -a 0 -x {0.0 1.0 27 ------- null}
h -t 0.312381904534226 -s 0 -d 1 -p poisson -e 500 -c 0 -i 27 -a 0 -x {0.0 1.0 -1 ------- null}
+ -t 0.312511088386267 -s 0 -d 1 -p poisson -e 500 -c 0 -i 28 -a 0 -x {0.0 1.0 28 ------- null}
+ -t 0.313907580391229 -s 0 -d 1 -p poisson -e 500 -c 0 -i 29 -a 0 -x {0.0 1.0 29 ------- null}
r -t 0.316275337452171 -s 0 -d 1 -p poisson -e 500 -c 0 -i 25 -a 0 -x {0.0 1.0 25 ------- null}
- -t 0.316381904534226 -s 0 -d 1 -p poisson -e 500 -c 0 -i 28 -a 0 -x {0.0 1.0 28 ------- null}
h -t 0.316381904534226 -s 0 -d 1 -p poisson -e 500 -c 0 -i 28 -a 0 -x {0.0 1.0 -1 ------- null}
- -t 0.320381904534226 -s 0 -d 1 -p poisson -e 500 -c 0 -i 29 -a 0 -x {0.0 1.0 29 ------- null}
h -t 0.320381904534226 -s 0 -d 1 -p poisson -e 500 -c 0 -i 29 -a 0 -x {0.0 1.0 -1 ------- null}
r -t 0.322381904534226 -s 0 -d 1 -p poisson -e 500 -c 0 -i 26 -a 0 -x {0.0 1.0 26 ------- null}
+ -t 0.326124567265833 -s 0 -d 1 -p poisson -e 500 -c 0 -i 30 -a 0 -x {0.0 1.0 30 ------- null}
- -t 0.326124567265833 -s 0 -d 1 -p poisson -e 500 -c 0 -i 30 -a 0 -x {0.0 1.0 30 ------- null}
h -t 0.326124567265833 -s 0 -d 1 -p poisson -e 500 -c 0 -i 30 -a 0 -x {0.0 1.0 -1 ------- null}
r -t 0.326381904534226 -s 0 -d 1 -p poisson -e 500 -c 0 -i 27 -a 0 -x {0.0 1.0 27 ------- null}
r -t 0.330381904534226 -s 0 -d 1 -p poisson -e 500 -c 0 -i 28 -a 0 -x {0.0 1.0 28 ------- null}
r -t 0.334381904534226 -s 0 -d 1 -p poisson -e 500 -c 0 -i 29 -a 0 -x {0.0 1.0 29 ------- null}
+ -t 0.337500747807762 -s 0 -d 1 -p poisson -e 500 -c 0 -i 31 -a 0 -x {0.0 1.0 31 ------- null}
- -t 0.337500747807762 -s 0 -d 1 -p poisson -e 500 -c 0 -i 31 -a 0 -x {0.0 1.0 31 ------- null}
h -t 0.337500747807762 -s 0 -d 1 -p poisson -e 500 -c 0 -i 31 -a 0 -x {0.0 1.0 -1 ------- null}
+ -t 0.338790491410294 -s 0 -d 1 -p poisson -e 500 -c 0 -i 32 -a 0 -x {0.0 1.0 32 ------- null}
r -t 0.340124567265833 -s 0 -d 1 -p poisson -e 500 -c 0 -i 30 -a 0 -x {0.0 1.0 30 ------- null}
- -t 0.341500747807762 -s 0 -d 1 -p poisson -e 500 -c 0 -i 32 -a 0 -x {0.0 1.0 32 ------- null}
h -t 0.341500747807762 -s 0 -d 1 -p poisson -e 500 -c 0 -i 32 -a 0 -x {0.0 1.0 -1 ------- null}
+ -t 0.341907041115903 -s 0 -d 1 -p poisson -e 500 -c 0 -i 33 -a 0 -x {0.0 1.0 33 ------- null}
+ -t 0.344079076702558 -s 0 -d 1 -p poisson -e 500 -c 0 -i 34 -a 0 -x {0.0 1.0 34 ------- null}
+ -t 0.344878121440896 -s 0 -d 1 -p poisson -e 500 -c 0 -i 35 -a 0 -x {0.0 1.0 35 ------- null}
- -t 0.345500747807762 -s 0 -d 1 -p poisson -e 500 -c 0 -i 33 -a 0 -x {0.0 1.0 33 ------- null}
h -t 0.345500747807762 -s 0 -d 1 -p poisson -e 500 -c 0 -i 33 -a 0 -x {0.0 1.0 -1 ------- null}
- -t 0.349500747807762 -s 0 -d 1 -p poisson -e 500 -c 0 -i 34 -a 0 -x {0.0 1.0 34 ------- null}
h -t 0.349500747807762 -s 0 -d 1 -p poisson -e 500 -c 0 -i 34 -a 0 -x {0.0 1.0 -1 ------- null}
r -t 0.351500747807762 -s 0 -d 1 -p poisson -e 500 -c 0 -i 31 -a 0 -x {0.0 1.0 31 ------- null}
+ -t 0.352098820324832 -s 0 -d 1 -p poisson -e 500 -c 0 -i 36 -a 0 -x {0.0 1.0 36 ------- null}
- -t 0.353500747807762 -s 0 -d 1 -p poisson -e 500 -c 0 -i 35 -a 0 -x {0.0 1.0 35 ------- null}
h -t 0.353500747807762 -s 0 -d 1 -p poisson -e 500 -c 0 -i 35 -a 0 -x {0.0 1.0 -1 ------- null}
r -t 0.355500747807762 -s 0 -d 1 -p poisson -e 500 -c 0 -i 32 -a 0 -x {0.0 1.0 32 ------- null}
- -t 0.357500747807762 -s 0 -d 1 -p poisson -e 500 -c 0 -i 36 -a 0 -x {0.0 1.0 36 ------- null}
h -t 0.357500747807762 -s 0 -d 1 -p poisson -e 500 -c 0 -i 36 -a 0 -x {0.0 1.0 -1 ------- null}
r -t 0.359500747807762 -s 0 -d 1 -p poisson -e 500 -c 0 -i 33 -a 0 -x {0.0 1.0 33 ------- null}
r -t 0.363500747807762 -s 0 -d 1 -p poisson -e 500 -c 0 -i 34 -a 0 -x {0.0 1.0 34 ------- null}
r -t 0.367500747807762 -s 0 -d 1 -p poisson -e 500 -c 0 -i 35 -a 0 -x {0.0 1.0 35 ------- null}
+ -t 0.369815525997494 -s 0 -d 1 -p poisson -e 500 -c 0 -i 37 -a 0 -x {0.0 1.0 37 ------- null}
- -t 0.369815525997494 -s 0 -d 1 -p poisson -e 500 -c 0 -i 37 -a 0 -x {0.0 1.0 37 ------- null}
h -t 0.369815525997494 -s 0 -d 1 -p poisson -e 500 -c 0 -i 37 -a 0 -x {0.0 1.0 -1 ------- null}
r -t 0.371500747807762 -s 0 -d 1 -p poisson -e 500 -c 0 -i 36 -a 0 -x {0.0 1.0 36 ------- null}
+ -t 0.377062140793047 -s 0 -d 1 -p poisson -e 500 -c 0 -i 38 -a 0 -x {0.0 1.0 38 ------- null}
- -t 0.377062140793047 -s 0 -d 1 -p poisson -e 500 -c 0 -i 38 -a 0 -x {0.0 1.0 38 ------- null}
h -t 0.377062140793047 -s 0 -d 1 -p poisson -e 500 -c 0 -i 38 -a 0 -x {0.0 1.0 -1 ------- null}
r -t 0.383815525997494 -s 0 -d 1 -p poisson -e 500 -c 0 -i 37 -a 0 -x {0.0 1.0 37 ------- null}
+ -t 0.390459704011654 -s 0 -d 1 -p poisson -e 500 -c 0 -i 39 -a 0 -x {0.0 1.0 39 ------- null}
- -t 0.390459704011654 -s 0 -d 1 -p poisson -e 500 -c 0 -i 39 -a 0 -x {0.0 1.0 39 ------- null}
h -t 0.390459704011654 -s 0 -d 1 -p poisson -e 500 -c 0 -i 39 -a 0 -x {0.0 1.0 -1 ------- null}
r -t 0.391062140793047 -s 0 -d 1 -p poisson -e 500 -c 0 -i 38 -a 0 -x {0.0 1.0 38 ------- null}
+ -t 0.391414986969036 -s 0 -d 1 -p poisson -e 500 -c 0 -i 40 -a 0 -x {0.0 1.0 40 ------- null}
+ -t 0.391856848342224 -s 0 -d 1 -p poisson -e 500 -c 0 -i 41 -a 0 -x {0.0 1.0 41 ------- null}
+ -t 0.39277701278792 -s 0 -d 1 -p poisson -e 500 -c 0 -i 42 -a 0 -x {0.0 1.0 42 ------- null}
- -t 0.394459704011654 -s 0 -d 1 -p poisson -e 500 -c 0 -i 40 -a 0 -x {0.0 1.0 40 ------- null}
h -t 0.394459704011654 -s 0 -d 1 -p poisson -e 500 -c 0 -i 40 -a 0 -x {0.0 1.0 -1 ------- null}
- -t 0.398459704011654 -s 0 -d 1 -p poisson -e 500 -c 0 -i 41 -a 0 -x {0.0 1.0 41 ------- null}
h -t 0.398459704011654 -s 0 -d 1 -p poisson -e 500 -c 0 -i 41 -a 0 -x {0.0 1.0 -1 ------- null}
- -t 0.402459704011654 -s 0 -d 1 -p poisson -e 500 -c 0 -i 42 -a 0 -x {0.0 1.0 42 ------- null}
h -t 0.402459704011654 -s 0 -d 1 -p poisson -e 500 -c 0 -i 42 -a 0 -x {0.0 1.0 -1 ------- null}
r -t 0.404459704011654 -s 0 -d 1 -p poisson -e 500 -c 0 -i 39 -a 0 -x {0.0 1.0 39 ------- null}
r -t 0.408459704011654 -s 0 -d 1 -p poisson -e 500 -c 0 -i 40 -a 0 -x {0.0 1.0 40 ------- null}
+ -t 0.410288827522315 -s 0 -d 1 -p poisson -e 500 -c 0 -i 43 -a 0 -x {0.0 1.0 43 ------- null}
- -t 0.410288827522315 -s 0 -d 1 -p poisson -e 500 -c 0 -i 43 -a 0 -x {0.0 1.0 43 ------- null}
h -t 0.410288827522315 -s 0 -d 1 -p poisson -e 500 -c 0 -i 43 -a 0 -x {0.0 1.0 -1 ------- null}
r -t 0.412459704011654 -s 0 -d 1 -p poisson -e 500 -c 0 -i 41 -a 0 -x {0.0 1.0 41 ------- null}
r -t 0.416459704011654 -s 0 -d 1 -p poisson -e 500 -c 0 -i 42 -a 0 -x {0.0 1.0 42 ------- null}
r -t 0.424288827522315 -s 0 -d 1 -p poisson -e 500 -c 0 -i 43 -a 0 -x {0.0 1.0 43 ------- null}
+ -t 0.43301198271098 -s 0 -d 1 -p poisson -e 500 -c 0 -i 44 -a 0 -x {0.0 1.0 44 ------- null}
- -t 0.43301198271098 -s 0 -d 1 -p poisson -e 500 -c 0 -i 44 -a 0 -x {0.0 1.0 44 ------- null}
h -t 0.43301198271098 -s 0 -d 1 -p poisson -e 500 -c 0 -i 44 -a 0 -x {0.0 1.0 -1 ------- null}
r -t 0.44701198271098 -s 0 -d 1 -p poisson -e 500 -c 0 -i 44 -a 0 -x {0.0 1.0 44 ------- null}
+ -t 0.469231481781687 -s 0 -d 1 -p poisson -e 500 -c 0 -i 45 -a 0 -x {0.0 1.0 45 ------- null}
- -t 0.469231481781687 -s 0 -d 1 -p poisson -e 500 -c 0 -i 45 -a 0 -x {0.0 1.0 45 ------- null}
h -t 0.469231481781687 -s 0 -d 1 -p poisson -e 500 -c 0 -i 45 -a 0 -x {0.0 1.0 -1 ------- null}
+ -t 0.473384664538513 -s 0 -d 1 -p poisson -e 500 -c 0 -i 46 -a 0 -x {0.0 1.0 46 ------- null}
- -t 0.473384664538513 -s 0 -d 1 -p poisson -e 500 -c 0 -i 46 -a 0 -x {0.0 1.0 46 ------- null}
h -t 0.473384664538513 -s 0 -d 1 -p poisson -e 500 -c 0 -i 46 -a 0 -x {0.0 1.0 -1 ------- null}
+ -t 0.482117851084858 -s 0 -d 1 -p poisson -e 500 -c 0 -i 47 -a 0 -x {0.0 1.0 47 ------- null}
- -t 0.482117851084858 -s 0 -d 1 -p poisson -e 500 -c 0 -i 47 -a 0 -x {0.0 1.0 47 ------- null}
h -t 0.482117851084858 -s 0 -d 1 -p poisson -e 500 -c 0 -i 47 -a 0 -x {0.0 1.0 -1 ------- null}
r -t 0.483231481781687 -s 0 -d 1 -p poisson -e 500 -c 0 -i 45 -a 0 -x {0.0 1.0 45 ------- null}
r -t 0.487384664538513 -s 0 -d 1 -p poisson -e 500 -c 0 -i 46 -a 0 -x {0.0 1.0 46 ------- null}
r -t 0.496117851084858 -s 0 -d 1 -p poisson -e 500 -c 0 -i 47 -a 0 -x {0.0 1.0 47 ------- null}
+ -t 0.49887568986818 -s 0 -d 1 -p poisson -e 500 -c 0 -i 48 -a 0 -x {0.0 1.0 48 ------- null}
- -t 0.49887568986818 -s 0 -d 1 -p poisson -e 500 -c 0 -i 48 -a 0 -x {0.0 1.0 48 ------- null}
h -t 0.49887568986818 -s 0 -d 1 -p poisson -e 500 -c 0 -i 48 -a 0 -x {0.0 1.0 -1 ------- null}
+ -t 0.502095958425453 -s 0 -d 1 -p poisson -e 500 -c 0 -i 49 -a 0 -x {0.0 1.0 49 ------- null}
- -t 0.50287568986818 -s 0 -d 1 -p poisson -e 500 -c 0 -i 49 -a 0 -x {0.0 1.0 49 ------- null}
h -t 0.50287568986818 -s 0 -d 1 -p poisson -e 500 -c 0 -i 49 -a 0 -x {0.0 1.0 -1 ------- null}
r -t 0.51287568986818 -s 0 -d 1 -p poisson -e 500 -c 0 -i 48 -a 0 -x {0.0 1.0 48 ------- null}
+ -t 0.512965586866962 -s 0 -d 1 -p poisson -e 500 -c 0 -i 50 -a 0 -x {0.0 1.0 50 ------- null}
- -t 0.512965586866962 -s 0 -d 1 -p poisson -e 500 -c 0 -i 50 -a 0 -x {0.0 1.0 50 ------- null}
h -t 0.512965586866962 -s 0 -d 1 -p poisson -e 500 -c 0 -i 50 -a 0 -x {0.0 1.0 -1 ------- null}
+ -t 0.515834163932619 -s 0 -d 1 -p poisson -e 500 -c 0 -i 51 -a 0 -x {0.0 1.0 51 ------- null}
r -t 0.51687568986818 -s 0 -d 1 -p poisson -e 500 -c 0 -i 49 -a 0 -x {0.0 1.0 49 ------- null}
- -t 0.516965586866962 -s 0 -d 1 -p poisson -e 500 -c 0 -i 51 -a 0 -x {0.0 1.0 51 ------- null}
h -t 0.516965586866962 -s 0 -d 1 -p poisson -e 500 -c 0 -i 51 -a 0 -x {0.0 1.0 -1 ------- null}
+ -t 0.520692533562835 -s 0 -d 1 -p poisson -e 500 -c 0 -i 52 -a 0 -x {0.0 1.0 52 ------- null}
- -t 0.520965586866962 -s 0 -d 1 -p poisson -e 500 -c 0 -i 52 -a 0 -x {0.0 1.0 52 ------- null}
h -t 0.520965586866962 -s 0 -d 1 -p poisson -e 500 -c 0 -i 52 -a 0 -x {0.0 1.0 -1 ------- null}
+ -t 0.521745661421568 -s 0 -d 1 -p poisson -e 500 -c 0 -i 53 -a 0 -x {0.0 1.0 53 ------- null}
- -t 0.524965586866962 -s 0 -d 1 -p poisson -e 500 -c 0 -i 53 -a 0 -x {0.0 1.0 53 ------- null}
h -t 0.524965586866962 -s 0 -d 1 -p poisson -e 500 -c 0 -i 53 -a 0 -x {0.0 1.0 -1 ------- null}
r -t 0.526965586866962 -s 0 -d 1 -p poisson -e 500 -c 0 -i 50 -a 0 -x {0.0 1.0 50 ------- null}
r -t 0.530965586866962 -s 0 -d 1 -p poisson -e 500 -c 0 -i 51 -a 0 -x {0.0 1.0 51 ------- null}
+ -t 0.532466318977774 -s 0 -d 1 -p poisson -e 500 -c 0 -i 54 -a 0 -x {0.0 1.0 54 ------- null}
- -t 0.532466318977774 -s 0 -d 1 -p poisson -e 500 -c 0 -i 54 -a 0 -x {0.0 1.0 54 ------- null}
h -t 0.532466318977774 -s 0 -d 1 -p poisson -e 500 -c 0 -i 54 -a 0 -x {0.0 1.0 -1 ------- null}
r -t 0.534965586866962 -s 0 -d 1 -p poisson -e 500 -c 0 -i 52 -a 0 -x {0.0 1.0 52 ------- null}
+ -t 0.537178927645461 -s 0 -d 1 -p poisson -e 500 -c 0 -i 55 -a 0 -x {0.0 1.0 55 ------- null}
- -t 0.537178927645461 -s 0 -d 1 -p poisson -e 500 -c 0 -i 55 -a 0 -x {0.0 1.0 55 ------- null}
h -t 0.537178927645461 -s 0 -d 1 -p poisson -e 500 -c 0 -i 55 -a 0 -x {0.0 1.0 -1 ------- null}
r -t 0.538965586866962 -s 0 -d 1 -p poisson -e 500 -c 0 -i 53 -a 0 -x {0.0 1.0 53 ------- null}
+ -t 0.544011329972088 -s 0 -d 1 -p poisson -e 500 -c 0 -i 56 -a 0 -x {0.0 1.0 56 ------- null}
- -t 0.544011329972088 -s 0 -d 1 -p poisson -e 500 -c 0 -i 56 -a 0 -x {0.0 1.0 56 ------- null}
h -t 0.544011329972088 -s 0 -d 1 -p poisson -e 500 -c 0 -i 56 -a 0 -x {0.0 1.0 -1 ------- null}
r -t 0.546466318977774 -s 0 -d 1 -p poisson -e 500 -c 0 -i 54 -a 0 -x {0.0 1.0 54 ------- null}
r -t 0.551178927645461 -s 0 -d 1 -p poisson -e 500 -c 0 -i 55 -a 0 -x {0.0 1.0 55 ------- null}
r -t 0.558011329972088 -s 0 -d 1 -p poisson -e 500 -c 0 -i 56 -a 0 -x {0.0 1.0 56 ------- null}
+ -t 0.57274318236853 -s 0 -d 1 -p poisson -e 500 -c 0 -i 57 -a 0 -x {0.0 1.0 57 ------- null}
- -t 0.57274318236853 -s 0 -d 1 -p poisson -e 500 -c 0 -i 57 -a 0 -x {0.0 1.0 57 ------- null}
h -t 0.57274318236853 -s 0 -d 1 -p poisson -e 500 -c 0 -i 57 -a 0 -x {0.0 1.0 -1 ------- null}
+ -t 0.581677791657215 -s 0 -d 1 -p poisson -e 500 -c 0 -i 58 -a 0 -x {0.0 1.0 58 ------- null}
- -t 0.581677791657215 -s 0 -d 1 -p poisson -e 500 -c 0 -i 58 -a 0 -x {0.0 1.0 58 ------- null}
h -t 0.581677791657215 -s 0 -d 1 -p poisson -e 500 -c 0 -i 58 -a 0 -x {0.0 1.0 -1 ------- null}
r -t 0.58674318236853 -s 0 -d 1 -p poisson -e 500 -c 0 -i 57 -a 0 -x {0.0 1.0 57 ------- null}
+ -t 0.595124650599483 -s 0 -d 1 -p poisson -e 500 -c 0 -i 59 -a 0 -x {0.0 1.0 59 ------- null}
- -t 0.595124650599483 -s 0 -d 1 -p poisson -e 500 -c 0 -i 59 -a 0 -x {0.0 1.0 59 ------- null}
h -t 0.595124650599483 -s 0 -d 1 -p poisson -e 500 -c 0 -i 59 -a 0 -x {0.0 1.0 -1 ------- null}
r -t 0.595677791657215 -s 0 -d 1 -p poisson -e 500 -c 0 -i 58 -a 0 -x {0.0 1.0 58 ------- null}
+ -t 0.597061354529039 -s 0 -d 1 -p poisson -e 500 -c 0 -i 60 -a 0 -x {0.0 1.0 60 ------- null}
+ -t 0.597498556950071 -s 0 -d 1 -p poisson -e 500 -c 0 -i 61 -a 0 -x {0.0 1.0 61 ------- null}
- -t 0.599124650599483 -s 0 -d 1 -p poisson -e 500 -c 0 -i 60 -a 0 -x {0.0 1.0 60 ------- null}
h -t 0.599124650599483 -s 0 -d 1 -p poisson -e 500 -c 0 -i 60 -a 0 -x {0.0 1.0 -1 ------- null}
+ -t 0.599561516317361 -s 0 -d 1 -p poisson -e 500 -c 0 -i 62 -a 0 -x {0.0 1.0 62 ------- null}
- -t 0.603124650599483 -s 0 -d 1 -p poisson -e 500 -c 0 -i 61 -a 0 -x {0.0 1.0 61 ------- null}
h -t 0.603124650599483 -s 0 -d 1 -p poisson -e 500 -c 0 -i 61 -a 0 -x {0.0 1.0 -1 ------- null}
- -t 0.607124650599483 -s 0 -d 1 -p poisson -e 500 -c 0 -i 62 -a 0 -x {0.0 1.0 62 ------- null}
h -t 0.607124650599483 -s 0 -d 1 -p poisson -e 500 -c 0 -i 62 -a 0 -x {0.0 1.0 -1 ------- null}
r -t 0.609124650599483 -s 0 -d 1 -p poisson -e 500 -c 0 -i 59 -a 0 -x {0.0 1.0 59 ------- null}
+ -t 0.612172093907676 -s 0 -d 1 -p poisson -e 500 -c 0 -i 63 -a 0 -x {0.0 1.0 63 ------- null}
- -t 0.612172093907676 -s 0 -d 1 -p poisson -e 500 -c 0 -i 63 -a 0 -x {0.0 1.0 63 ------- null}
h -t 0.612172093907676 -s 0 -d 1 -p poisson -e 500 -c 0 -i 63 -a 0 -x {0.0 1.0 -1 ------- null}
r -t 0.613124650599483 -s 0 -d 1 -p poisson -e 500 -c 0 -i 60 -a 0 -x {0.0 1.0 60 ------- null}
+ -t 0.615083563575701 -s 0 -d 1 -p poisson -e 500 -c 0 -i 64 -a 0 -x {0.0 1.0 64 ------- null}
- -t 0.616172093907676 -s 0 -d 1 -p poisson -e 500 -c 0 -i 64 -a 0 -x {0.0 1.0 64 ------- null}
h -t 0.616172093907676 -s 0 -d 1 -p poisson -e 500 -c 0 -i 64 -a 0 -x {0.0 1.0 -1 ------- null}
r -t 0.617124650599483 -s 0 -d 1 -p poisson -e 500 -c 0 -i 61 -a 0 -x {0.0 1.0 61 ------- null}
r -t 0.621124650599483 -s 0 -d 1 -p poisson -e 500 -c 0 -i 62 -a 0 -x {0.0 1.0 62 ------- null}
r -t 0.626172093907676 -s 0 -d 1 -p poisson -e 500 -c 0 -i 63 -a 0 -x {0.0 1.0 63 ------- null}
+ -t 0.628858691749846 -s 0 -d 1 -p poisson -e 500 -c 0 -i 65 -a 0 -x {0.0 1.0 65 ------- null}
- -t 0.628858691749846 -s 0 -d 1 -p poisson -e 500 -c 0 -i 65 -a 0 -x {0.0 1.0 65 ------- null}
h -t 0.628858691749846 -s 0 -d 1 -p poisson -e 500 -c 0 -i 65 -a 0 -x {0.0 1.0 -1 ------- null}
+ -t 0.629052978372873 -s 0 -d 1 -p poisson -e 500 -c 0 -i 66 -a 0 -x {0.0 1.0 66 ------- null}
r -t 0.630172093907676 -s 0 -d 1 -p poisson -e 500 -c 0 -i 64 -a 0 -x {0.0 1.0 64 ------- null}
- -t 0.632858691749846 -s 0 -d 1 -p poisson -e 500 -c 0 -i 66 -a 0 -x {0.0 1.0 66 ------- null}
h -t 0.632858691749846 -s 0 -d 1 -p poisson -e 500 -c 0 -i 66 -a 0 -x {0.0 1.0 -1 ------- null}
r -t 0.642858691749846 -s 0 -d 1 -p poisson -e 500 -c 0 -i 65 -a 0 -x {0.0 1.0 65 ------- null}
r -t 0.646858691749846 -s 0 -d 1 -p poisson -e 500 -c 0 -i 66 -a 0 -x {0.0 1.0 66 ------- null}
+ -t 0.648196828683988 -s 0 -d 1 -p poisson -e 500 -c 0 -i 67 -a 0 -x {0.0 1.0 67 ------- null}
- -t 0.648196828683988 -s 0 -d 1 -p poisson -e 500 -c 0 -i 67 -a 0 -x {0.0 1.0 67 ------- null}
h -t 0.648196828683988 -s 0 -d 1 -p poisson -e 500 -c 0 -i 67 -a 0 -x {0.0 1.0 -1 ------- null}
+ -t 0.653875567610494 -s 0 -d 1 -p poisson -e 500 -c 0 -i 68 -a 0 -x {0.0 1.0 68 ------- null}
- -t 0.653875567610494 -s 0 -d 1 -p poisson -e 500 -c 0 -i 68 -a 0 -x {0.0 1.0 68 ------- null}
h -t 0.653875567610494 -s 0 -d 1 -p poisson -e 500 -c 0 -i 68 -a 0 -x {0.0 1.0 -1 ------- null}
r -t 0.662196828683988 -s 0 -d 1 -p poisson -e 500 -c 0 -i 67 -a 0 -x {0.0 1.0 67 ------- null}
r -t 0.667875567610494 -s 0 -d 1 -p poisson -e 500 -c 0 -i 68 -a 0 -x {0.0 1.0 68 ------- null}
+ -t 0.677820109441405 -s 0 -d 1 -p poisson -e 500 -c 0 -i 69 -a 0 -x {0.0 1.0 69 ------- null}
- -t 0.677820109441405 -s 0 -d 1 -p poisson -e 500 -c 0 -i 69 -a 0 -x {0.0 1.0 69 ------- null}
h -t 0.677820109441405 -s 0 -d 1 -p poisson -e 500 -c 0 -i 69 -a 0 -x {0.0 1.0 -1 ------- null}
+ -t 0.678979340129479 -s 0 -d 1 -p poisson -e 500 -c 0 -i 70 -a 0 -x {0.0 1.0 70 ------- null}
- -t 0.681820109441405 -s 0 -d 1 -p poisson -e 500 -c 0 -i 70 -a 0 -x {0.0 1.0 70 ------- null}
h -t 0.681820109441405 -s 0 -d 1 -p poisson -e 500 -c 0 -i 70 -a 0 -x {0.0 1.0 -1 ------- null}
+ -t 0.684014733784895 -s 0 -d 1 -p poisson -e 500 -c 0 -i 71 -a 0 -x {0.0 1.0 71 ------- null}
- -t 0.685820109441405 -s 0 -d 1 -p poisson -e 500 -c 0 -i 71 -a 0 -x {0.0 1.0 71 ------- null}
h -t 0.685820109441405 -s 0 -d 1 -p poisson -e 500 -c 0 -i 71 -a 0 -x {0.0 1.0 -1 ------- null}
+ -t 0.686476820236532 -s 0 -d 1 -p poisson -e 500 -c 0 -i 72 -a 0 -x {0.0 1.0 72 ------- null}
- -t 0.689820109441405 -s 0 -d 1 -p poisson -e 500 -c 0 -i 72 -a 0 -x {0.0 1.0 72 ------- null}
h -t 0.689820109441405 -s 0 -d 1 -p poisson -e 500 -c 0 -i 72 -a 0 -x {0.0 1.0 -1 ------- null}
r -t 0.691820109441405 -s 0 -d 1 -p poisson -e 500 -c 0 -i 69 -a 0 -x {0.0 1.0 69 ------- null}
+ -t 0.69339361940343 -s 0 -d 1 -p poisson -e 500 -c 0 -i 73 -a 0 -x {0.0 1.0 73 ------- null}
- -t 0.693820109441405 -s 0 -d 1 -p poisson -e 500 -c 0 -i 73 -a 0 -x {0.0 1.0 73 ------- null}
h -t 0.693820109441405 -s 0 -d 1 -p poisson -e 500 -c 0 -i 73 -a 0 -x {0.0 1.0 -1 ------- null}
r -t 0.695820109441405 -s 0 -d 1 -p poisson -e 500 -c 0 -i 70 -a 0 -x {0.0 1.0 70 ------- null}
r -t 0.699820109441405 -s 0 -d 1 -p poisson -e 500 -c 0 -i 71 -a 0 -x {0.0 1.0 71 ------- null}
r -t 0.703820109441405 -s 0 -d 1 -p poisson -e 500 -c 0 -i 72 -a 0 -x {0.0 1.0 72 ------- null}
r -t 0.707820109441405 -s 0 -d 1 -p poisson -e 500 -c 0 -i 73 -a 0 -x {0.0 1.0 73 ------- null}
+ -t 0.712818792714473 -s 0 -d 1 -p poisson -e 500 -c 0 -i 74 -a 0 -x {0.0 1.0 74 ------- null}
- -t 0.712818792714473 -s 0 -d 1 -p poisson -e 500 -c 0 -i 74 -a 0 -x {0.0 1.0 74 ------- null}
h -t 0.712818792714473 -s 0 -d 1 -p poisson -e 500 -c 0 -i 74 -a 0 -x {0.0 1.0 -1 ------- null}
+ -t 0.714461220262369 -s 0 -d 1 -p poisson -e 500 -c 0 -i 75 -a 0 -x {0.0 1.0 75 ------- null}
+ -t 0.715278831966271 -s 0 -d 1 -p poisson -e 500 -c 0 -i 76 -a 0 -x {0.0 1.0 76 ------- null}
- -t 0.716818792714473 -s 0 -d 1 -p poisson -e 500 -c 0 -i 75 -a 0 -x {0.0 1.0 75 ------- null}
h -t 0.716818792714473 -s 0 -d 1 -p poisson -e 500 -c 0 -i 75 -a 0 -x {0.0 1.0 -1 ------- null}
+ -t 0.717818006796413 -s 0 -d 1 -p poisson -e 500 -c 0 -i 77 -a 0 -x {0.0 1.0 77 ------- null}
+ -t 0.718889492383857 -s 0 -d 1 -p poisson -e 500 -c 0 -i 78 -a 0 -x {0.0 1.0 78 ------- null}
- -t 0.720818792714473 -s 0 -d 1 -p poisson -e 500 -c 0 -i 76 -a 0 -x {0.0 1.0 76 ------- null}
h -t 0.720818792714473 -s 0 -d 1 -p poisson -e 500 -c 0 -i 76 -a 0 -x {0.0 1.0 -1 ------- null}
+ -t 0.723163440881614 -s 0 -d 1 -p poisson -e 500 -c 0 -i 79 -a 0 -x {0.0 1.0 79 ------- null}
- -t 0.724818792714473 -s 0 -d 1 -p poisson -e 500 -c 0 -i 77 -a 0 -x {0.0 1.0 77 ------- null}
h -t 0.724818792714473 -s 0 -d 1 -p poisson -e 500 -c 0 -i 77 -a 0 -x {0.0 1.0 -1 ------- null}