V -t * -v 1.0a5 -a 0
A -t * -n 1 -p 0 -o 0xffffffff -c 31 -a 1
A -t * -h 1 -m 2147483647 -s 0
n -t * -a 0 -s 0 -S UP -v circle -c black -i black
n -t * -a 1 -s 1 -S UP -v circle -c black -i black
l -t * -s 0 -d 1 -S UP -r 1000000 -D 0.01 -c black -o right
q -t * -s 1 -d 0 -a 0.5
q -t * -s 0 -d 1 -a 0.5
+ -t 0 -s 0 -d 1 -p poisson -e 500 -c 0 -i 0 -a 0 -x {0.0 1.0 0 ------- null}
- -t 0 -s 0 -d 1 -p poisson -e 500 -c 0 -i 0 -a 0 -x {0.0 1.0 0 ------- null}
h -t 0 -s 0 -d 1 -p poisson -e 500 -c 0 -i 0 -a 0 -x {0.0 1.0 -1 ------- null}
r -t 0.014 -s 0 -d 1 -p poisson -e 500 -c 0 -i 0 -a 0 -x {0.0 1.0 0 ------- null}
+ -t 0.0213008244627759 -s 0 -d 1 -p poisson -e 500 -c 0 -i 1 -a 0 -x {0.0 1.0 1 ------- null}
- -t 0.0213008244627759 -s 0 -d 1 -p poisson -e 500 -c 0 -i 1 -a 0 -x {0.0 1.0 1 ------- null}
h -t 0.0213008244627759 -s 0 -d 1 -p poisson -e 500 -c 0 -i 1 -a 0 -x {0.0 1.0 -1 ------- null}
+ -t 0.0228666952557032 -s 0 -d 1 -p poisson -e 500 -c 0 -i 2 -a 0 -x {0.0 1.0 2 ------- null}
- -t 0.0253008244627759 -s 0 -d 1 -p poisson -e 500 -c 0 -i 2 -a 0 -x {0.0 1.0 2 ------- null}
h -t 0.0253008244627759 -s 0 -d 1 -p poisson -e 500 -c 0 -i 2 -a 0 -x {0.0 1.0 -1 ------- null}
+ -t 0.0342111889976752 -s 0 -d 1 -p poisson -e 500 -c 0 -i 3 -a 0 -x {0.0 1.0 3 ------- null}
- -t 0.0342111889976752 -s 0 -d 1 -p poisson -e 500 -c 0 -i 3 -a 0 -x {0.0 1.0 3 ------- null}
h -t 0.0342111889976752 -s 0 -d 1 -p poisson -e 500 -c 0 -i 3 -a 0 -x {0.0 1.0 -1 ------- null}
r -t 0.0353008244627759 -s 0 -d 1 -p poisson -e 500 -c 0 -i 1 -a 0 -x {0.0 1.0 1 ------- null}
r -t 0.0393008244627759 -s 0 -d 1 -p poisson -e 500 -c 0 -i 2 -a 0 -x {0.0 1.0 2 ------- null}
+ -t 0.0406885901790225 -s 0 -d 1 -p poisson -e 500 -c 0 -i 4 -a 0 -x {0.0 1.0 4 ------- null}
- -t 0.0406885901790225 -s 0 -d 1 -p poisson -e 500 -c 0 -i 4 -a 0 -x {0.0 1.0 4 ------- null}
h -t 0.0406885901790225 -s 0 -d 1 -p poisson -e 500 -c 0 -i 4 -a 0 -x {0.0 1.0 -1 ------- null}
+ -t 0.0428707697102985 -s 0 -d 1 -p poisson -e 500 -c 0 -i 5 -a 0 -x {0.0 1.0 5 ------- null}
+ -t 0.0434686358224553 -s 0 -d 1 -p poisson -e 500 -c 0 -i 6 -a 0 -x {0.0 1.0 6 ------- null}
- -t 0.0446885901790225 -s 0 -d 1 -p poisson -e 500 -c 0 -i 5 -a 0 -x {0.0 1.0 5 ------- null}
h -t 0.0446885901790225 -s 0 -d 1 -p poisson -e 500 -c 0 -i 5 -a 0 -x {0.0 1.0 -1 ------- null}
+ -t 0.0465664337724115 -s 0 -d 1 -p poisson -e 500 -c 0 -i 7 -a 0 -x {0.0 1.0 7 ------- null}
+ -t 0.0471071209664818 -s 0 -d 1 -p poisson -e 500 -c 0 -i 8 -a 0 -x {0.0 1.0 8 ------- null}
r -t 0.0482111889976752 -s 0 -d 1 -p poisson -e 500 -c 0 -i 3 -a 0 -x {0.0 1.0 3 ------- null}
- -t 0.0486885901790225 -s 0 -d 1 -p poisson -e 500 -c 0 -i 6 -a 0 -x {0.0 1.0 6 ------- null}
h -t 0.0486885901790225 -s 0 -d 1 -p poisson -e 500 -c 0 -i 6 -a 0 -x {0.0 1.0 -1 ------- null}
+ -t 0.0509734299675014 -s 0 -d 1 -p poisson -e 500 -c 0 -i 9 -a 0 -x {0.0 1.0 9 ------- null}
+ -t 0.0521682616749116 -s 0 -d 1 -p poisson -e 500 -c 0 -i 10 -a 0 -x {0.0 1.0 10 ------- null}
- -t 0.0526885901790225 -s 0 -d 1 -p poisson -e 500 -c 0 -i 7 -a 0 -x {0.0 1.0 7 ------- null}
h -t 0.0526885901790225 -s 0 -d 1 -p poisson -e 500 -c 0 -i 7 -a 0 -x {0.0 1.0 -1 ------- null}
r -t 0.0546885901790225 -s 0 -d 1 -p poisson -e 500 -c 0 -i 4 -a 0 -x {0.0 1.0 4 ------- null}
+ -t 0.0552993501661206 -s 0 -d 1 -p poisson -e 500 -c 0 -i 11 -a 0 -x {0.0 1.0 11 ------- null}
+ -t 0.0557759894591266 -s 0 -d 1 -p poisson -e 500 -c 0 -i 12 -a 0 -x {0.0 1.0 12 ------- null}
- -t 0.0566885901790225 -s 0 -d 1 -p poisson -e 500 -c 0 -i 8 -a 0 -x {0.0 1.0 8 ------- null}
h -t 0.0566885901790225 -s 0 -d 1 -p poisson -e 500 -c 0 -i 8 -a 0 -x {0.0 1.0 -1 ------- null}
r -t 0.0586885901790225 -s 0 -d 1 -p poisson -e 500 -c 0 -i 5 -a 0 -x {0.0 1.0 5 ------- null}
+ -t 0.0605946631080842 -s 0 -d 1 -p poisson -e 500 -c 0 -i 13 -a 0 -x {0.0 1.0 13 ------- null}
- -t 0.0606885901790225 -s 0 -d 1 -p poisson -e 500 -c 0 -i 9 -a 0 -x {0.0 1.0 9 ------- null}
h -t 0.0606885901790225 -s 0 -d 1 -p poisson -e 500 -c 0 -i 9 -a 0 -x {0.0 1.0 -1 ------- null}
r -t 0.0626885901790225 -s 0 -d 1 -p poisson -e 500 -c 0 -i 6 -a 0 -x {0.0 1.0 6 ------- null}
- -t 0.0646885901790225 -s 0 -d 1 -p poisson -e 500 -c 0 -i 10 -a 0 -x {0.0 1.0 10 ------- null}
h -t 0.0646885901790225 -s 0 -d 1 -p poisson -e 500 -c 0 -i 10 -a 0 -x {0.0 1.0 -1 ------- null}
r -t 0.0666885901790225 -s 0 -d 1 -p poisson -e 500 -c 0 -i 7 -a 0 -x {0.0 1.0 7 ------- null}
- -t 0.0686885901790225 -s 0 -d 1 -p poisson -e 500 -c 0 -i 11 -a 0 -x {0.0 1.0 11 ------- null}
h -t 0.0686885901790225 -s 0 -d 1 -p poisson -e 500 -c 0 -i 11 -a 0 -x {0.0 1.0 -1 ------- null}
+ -t 0.0689982480155456 -s 0 -d 1 -p poisson -e 500 -c 0 -i 14 -a 0 -x {0.0 1.0 14 ------- null}
+ -t 0.0701880650578017 -s 0 -d 1 -p poisson -e 500 -c 0 -i 15 -a 0 -x {0.0 1.0 15 ------- null}
r -t 0.0706885901790225 -s 0 -d 1 -p poisson -e 500 -c 0 -i 8 -a 0 -x {0.0 1.0 8 ------- null}
- -t 0.0726885901790225 -s 0 -d 1 -p poisson -e 500 -c 0 -i 12 -a 0 -x {0.0 1.0 12 ------- null}
h -t 0.0726885901790225 -s 0 -d 1 -p poisson -e 500 -c 0 -i 12 -a 0 -x {0.0 1.0 -1 ------- null}
r -t 0.0746885901790225 -s 0 -d 1 -p poisson -e 500 -c 0 -i 9 -a 0 -x {0.0 1.0 9 ------- null}
+ -t 0.0759833724625382 -s 0 -d 1 -p poisson -e 500 -c 0 -i 16 -a 0 -x {0.0 1.0 16 ------- null}
+ -t 0.0763864113179947 -s 0 -d 1 -p poisson -e 500 -c 0 -i 17 -a 0 -x {0.0 1.0 17 ------- null}
- -t 0.0766885901790225 -s 0 -d 1 -p poisson -e 500 -c 0 -i 13 -a 0 -x {0.0 1.0 13 ------- null}
h -t 0.0766885901790225 -s 0 -d 1 -p poisson -e 500 -c 0 -i 13 -a 0 -x {0.0 1.0 -1 ------- null}
+ -t 0.0786766292802572 -s 0 -d 1 -p poisson -e 500 -c 0 -i 18 -a 0 -x {0.0 1.0 18 ------- null}
r -t 0.0786885901790225 -s 0 -d 1 -p poisson -e 500 -c 0 -i 10 -a 0 -x {0.0 1.0 10 ------- null}
- -t 0.0806885901790226 -s 0 -d 1 -p poisson -e 500 -c 0 -i 14 -a 0 -x {0.0 1.0 14 ------- null}
h -t 0.0806885901790226 -s 0 -d 1 -p poisson -e 500 -c 0 -i 14 -a 0 -x {0.0 1.0 -1 ------- null}
r -t 0.0826885901790225 -s 0 -d 1 -p poisson -e 500 -c 0 -i 11 -a 0 -x {0.0 1.0 11 ------- null}
+ -t 0.0833275166402282 -s 0 -d 1 -p poisson -e 500 -c 0 -i 19 -a 0 -x {0.0 1.0 19 ------- null}
- -t 0.0846885901790226 -s 0 -d 1 -p poisson -e 500 -c 0 -i 15 -a 0 -x {0.0 1.0 15 ------- null}
h -t 0.0846885901790226 -s 0 -d 1 -p poisson -e 500 -c 0 -i 15 -a 0 -x {0.0 1.0 -1 ------- null}
r -t 0.0866885901790225 -s 0 -d 1 -p poisson -e 500 -c 0 -i 12 -a 0 -x {0.0 1.0 12 ------- null}
- -t 0.0886885901790226 -s 0 -d 1 -p poisson -e 500 -c 0 -i 16 -a 0 -x {0.0 1.0 16 ------- null}
h -t 0.0886885901790226 -s 0 -d 1 -p poisson -e 500 -c 0 -i 16 -a 0 -x {0.0 1.0 -1 ------- null}
+ -t 0.0896288084017894 -s 0 -d 1 -p poisson -e 500 -c 0 -i 20 -a 0 -x {0.0 1.0 20 ------- null}
+ -t 0.0902005316787843 -s 0 -d 1 -p poisson -e 500 -c 0 -i 21 -a 0 -x {0.0 1.0 21 ------- null}
r -t 0.0906885901790225 -s 0 -d 1 -p poisson -e 500 -c 0 -i 13 -a 0 -x {0.0 1.0 13 ------- null}
- -t 0.0926885901790226 -s 0 -d 1 -p poisson -e 500 -c 0 -i 17 -a 0 -x {0.0 1.0 17 ------- null}
h -t 0.0926885901790226 -s 0 -d 1 -p poisson -e 500 -c 0 -i 17 -a 0 -x {0.0 1.0 -1 ------- null}
+ -t 0.0930096668237159 -s 0 -d 1 -p poisson -e 500 -c 0 -i 22 -a 0 -x {0.0 1.0 22 ------- null}
r -t 0.0946885901790225 -s 0 -d 1 -p poisson -e 500 -c 0 -i 14 -a 0 -x {0.0 1.0 14 ------- null}
+ -t 0.0966215464643618 -s 0 -d 1 -p poisson -e 500 -c 0 -i 23 -a 0 -x {0.0 1.0 23 ------- null}
- -t 0.0966885901790226 -s 0 -d 1 -p poisson -e 500 -c 0 -i 18 -a 0 -x {0.0 1.0 18 ------- null}
h -t 0.0966885901790226 -s 0 -d 1 -p poisson -e 500 -c 0 -i 18 -a 0 -x {0.0 1.0 -1 ------- null}
r -t 0.0986885901790226 -s 0 -d 1 -p poisson -e 500 -c 0 -i 15 -a 0 -x {0.0 1.0 15 ------- null}
+ -t 0.0990077036286283 -s 0 -d 1 -p poisson -e 500 -c 0 -i 24 -a 0 -x {0.0 1.0 24 ------- null}
- -t 0.100688590179023 -s 0 -d 1 -p poisson -e 500 -c 0 -i 19 -a 0 -x {0.0 1.0 19 ------- null}
h -t 0.100688590179023 -s 0 -d 1 -p poisson -e 500 -c 0 -i 19 -a 0 -x {0.0 1.0 -1 ------- null}
+ -t 0.10075844581739 -s 0 -d 1 -p poisson -e 500 -c 0 -i 25 -a 0 -x {0.0 1.0 25 ------- null}
r -t 0.102688590179023 -s 0 -d 1 -p poisson -e 500 -c 0 -i 16 -a 0 -x {0.0 1.0 16 ------- null}
+ -t 0.102793968178075 -s 0 -d 1 -p poisson -e 500 -c 0 -i 26 -a 0 -x {0.0 1.0 26 ------- null}
+ -t 0.103774570903942 -s 0 -d 1 -p poisson -e 500 -c 0 -i 27 -a 0 -x {0.0 1.0 27 ------- null}
+ -t 0.104170362795422 -s 0 -d 1 -p poisson -e 500 -c 0 -i 28 -a 0 -x {0.0 1.0 28 ------- null}
+ -t 0.10463586013041 -s 0 -d 1 -p poisson -e 500 -c 0 -i 29 -a 0 -x {0.0 1.0 29 ------- null}
- -t 0.104688590179023 -s 0 -d 1 -p poisson -e 500 -c 0 -i 20 -a 0 -x {0.0 1.0 20 ------- null}
h -t 0.104688590179023 -s 0 -d 1 -p poisson -e 500 -c 0 -i 20 -a 0 -x {0.0 1.0 -1 ------- null}
r -t 0.106688590179023 -s 0 -d 1 -p poisson -e 500 -c 0 -i 17 -a 0 -x {0.0 1.0 17 ------- null}
- -t 0.108688590179023 -s 0 -d 1 -p poisson -e 500 -c 0 -i 21 -a 0 -x {0.0 1.0 21 ------- null}
h -t 0.108688590179023 -s 0 -d 1 -p poisson -e 500 -c 0 -i 21 -a 0 -x {0.0 1.0 -1 ------- null}
+ -t 0.108708189088611 -s 0 -d 1 -p poisson -e 500 -c 0 -i 30 -a 0 -x {0.0 1.0 30 ------- null}
r -t 0.110688590179023 -s 0 -d 1 -p poisson -e 500 -c 0 -i 18 -a 0 -x {0.0 1.0 18 ------- null}
+ -t 0.112500249269254 -s 0 -d 1 -p poisson -e 500 -c 0 -i 31 -a 0 -x {0.0 1.0 31 ------- null}
- -t 0.112688590179023 -s 0 -d 1 -p poisson -e 500 -c 0 -i 22 -a 0 -x {0.0 1.0 22 ------- null}
h -t 0.112688590179023 -s 0 -d 1 -p poisson -e 500 -c 0 -i 22 -a 0 -x {0.0 1.0 -1 ------- null}
+ -t 0.112930163803431 -s 0 -d 1 -p poisson -e 500 -c 0 -i 32 -a 0 -x {0.0 1.0 32 ------- null}
+ -t 0.113969013705301 -s 0 -d 1 -p poisson -e 500 -c 0 -i 33 -a 0 -x {0.0 1.0 33 ------- null}
r -t 0.114688590179023 -s 0 -d 1 -p poisson -e 500 -c 0 -i 19 -a 0 -x {0.0 1.0 19 ------- null}
+ -t 0.114693025567519 -s 0 -d 1 -p poisson -e 500 -c 0 -i 34 -a 0 -x {0.0 1.0 34 ------- null}
+ -t 0.114959373813632 -s 0 -d 1 -p poisson -e 500 -c 0 -i 35 -a 0 -x {0.0 1.0 35 ------- null}
- -t 0.116688590179023 -s 0 -d 1 -p poisson -e 500 -c 0 -i 23 -a 0 -x {0.0 1.0 23 ------- null}
h -t 0.116688590179023 -s 0 -d 1 -p poisson -e 500 -c 0 -i 23 -a 0 -x {0.0 1.0 -1 ------- null}
+ -t 0.117366273441611 -s 0 -d 1 -p poisson -e 500 -c 0 -i 36 -a 0 -x {0.0 1.0 36 ------- null}
r -t 0.118688590179023 -s 0 -d 1 -p poisson -e 500 -c 0 -i 20 -a 0 -x {0.0 1.0 20 ------- null}
- -t 0.120688590179023 -s 0 -d 1 -p poisson -e 500 -c 0 -i 24 -a 0 -x {0.0 1.0 24 ------- null}
h -t 0.120688590179023 -s 0 -d 1 -p poisson -e 500 -c 0 -i 24 -a 0 -x {0.0 1.0 -1 ------- null}
r -t 0.122688590179023 -s 0 -d 1 -p poisson -e 500 -c 0 -i 21 -a 0 -x {0.0 1.0 21 ------- null}
+ -t 0.123271841999165 -s 0 -d 1 -p poisson -e 500 -c 0 -i 37 -a 0 -x {0.0 1.0 37 ------- null}
- -t 0.124688590179023 -s 0 -d 1 -p poisson -e 500 -c 0 -i 25 -a 0 -x {0.0 1.0 25 ------- null}
h -t 0.124688590179023 -s 0 -d 1 -p poisson -e 500 -c 0 -i 25 -a 0 -x {0.0 1.0 -1 ------- null}
+ -t 0.125687380264349 -s 0 -d 1 -p poisson -e 500 -c 0 -i 38 -a 0 -x {0.0 1.0 38 ------- null}
r -t 0.126688590179023 -s 0 -d 1 -p poisson -e 500 -c 0 -i 22 -a 0 -x {0.0 1.0 22 ------- null}
- -t 0.128688590179023 -s 0 -d 1 -p poisson -e 500 -c 0 -i 26 -a 0 -x {0.0 1.0 26 ------- null}
h -t 0.128688590179023 -s 0 -d 1 -p poisson -e 500 -c 0 -i 26 -a 0 -x {0.0 1.0 -1 ------- null}
+ -t 0.130153234670551 -s 0 -d 1 -p poisson -e 500 -c 0 -i 39 -a 0 -x {0.0 1.0 39 ------- null}
+ -t 0.130471662323012 -s 0 -d 1 -p poisson -e 500 -c 0 -i 40 -a 0 -x {0.0 1.0 40 ------- null}
+ -t 0.130618949447408 -s 0 -d 1 -p poisson -e 500 -c 0 -i 41 -a 0 -x {0.0 1.0 41 ------- null}
r -t 0.130688590179023 -s 0 -d 1 -p poisson -e 500 -c 0 -i 23 -a 0 -x {0.0 1.0 23 ------- null}
+ -t 0.130925670929307 -s 0 -d 1 -p poisson -e 500 -c 0 -i 42 -a 0 -x {0.0 1.0 42 ------- null}
- -t 0.132688590179023 -s 0 -d 1 -p poisson -e 500 -c 0 -i 27 -a 0 -x {0.0 1.0 27 ------- null}
h -t 0.132688590179023 -s 0 -d 1 -p poisson -e 500 -c 0 -i 27 -a 0 -x {0.0 1.0 -1 ------- null}
r -t 0.134688590179023 -s 0 -d 1 -p poisson -e 500 -c 0 -i 24 -a 0 -x {0.0 1.0 24 ------- null}
- -t 0.136688590179023 -s 0 -d 1 -p poisson -e 500 -c 0 -i 28 -a 0 -x {0.0 1.0 28 ------- null}
h -t 0.136688590179023 -s 0 -d 1 -p poisson -e 500 -c 0 -i 28 -a 0 -x {0.0 1.0 -1 ------- null}
+ -t 0.136762942507438 -s 0 -d 1 -p poisson -e 500 -c 0 -i 43 -a 0 -x {0.0 1.0 43 ------- null}
r -t 0.138688590179023 -s 0 -d 1 -p poisson -e 500 -c 0 -i 25 -a 0 -x {0.0 1.0 25 ------- null}
- -t 0.140688590179023 -s 0 -d 1 -p poisson -e 500 -c 0 -i 29 -a 0 -x {0.0 1.0 29 ------- null}
h -t 0.140688590179023 -s 0 -d 1 -p poisson -e 500 -c 0 -i 29 -a 0 -x {0.0 1.0 -1 ------- null}
r -t 0.142688590179023 -s 0 -d 1 -p poisson -e 500 -c 0 -i 26 -a 0 -x {0.0 1.0 26 ------- null}
+ -t 0.144337327570327 -s 0 -d 1 -p poisson -e 500 -c 0 -i 44 -a 0 -x {0.0 1.0 44 ------- null}
- -t 0.144688590179023 -s 0 -d 1 -p poisson -e 500 -c 0 -i 30 -a 0 -x {0.0 1.0 30 ------- null}
h -t 0.144688590179023 -s 0 -d 1 -p poisson -e 500 -c 0 -i 30 -a 0 -x {0.0 1.0 -1 ------- null}
r -t 0.146688590179023 -s 0 -d 1 -p poisson -e 500 -c 0 -i 27 -a 0 -x {0.0 1.0 27 ------- null}
- -t 0.148688590179023 -s 0 -d 1 -p poisson -e 500 -c 0 -i 31 -a 0 -x {0.0 1.0 31 ------- null}
h -t 0.148688590179023 -s 0 -d 1 -p poisson -e 500 -c 0 -i 31 -a 0 -x {0.0 1.0 -1 ------- null}
r -t 0.150688590179023 -s 0 -d 1 -p poisson -e 500 -c 0 -i 28 -a 0 -x {0.0 1.0 28 ------- null}
- -t 0.152688590179023 -s 0 -d 1 -p poisson -e 500 -c 0 -i 32 -a 0 -x {0.0 1.0 32 ------- null}
h -t 0.152688590179023 -s 0 -d 1 -p poisson -e 500 -c 0 -i 32 -a 0 -x {0.0 1.0 -1 ------- null}
r -t 0.154688590179023 -s 0 -d 1 -p poisson -e 500 -c 0 -i 29 -a 0 -x {0.0 1.0 29 ------- null}
+ -t 0.156410493927229 -s 0 -d 1 -p poisson -e 500 -c 0 -i 45 -a 0 -x {0.0 1.0 45 ------- null}
- -t 0.156688590179023 -s 0 -d 1 -p poisson -e 500 -c 0 -i 33 -a 0 -x {0.0 1.0 33 ------- null}
h -t 0.156688590179023 -s 0 -d 1 -p poisson -e 500 -c 0 -i 33 -a 0 -x {0.0 1.0 -1 ------- null}
+ -t 0.157794888179504 -s 0 -d 1 -p poisson -e 500 -c 0 -i 46 -a 0 -x {0.0 1.0 46 ------- null}
r -t 0.158688590179023 -s 0 -d 1 -p poisson -e 500 -c 0 -i 30 -a 0 -x {0.0 1.0 30 ------- null}
- -t 0.160688590179023 -s 0 -d 1 -p poisson -e 500 -c 0 -i 34 -a 0 -x {0.0 1.0 34 ------- null}
h -t 0.160688590179023 -s 0 -d 1 -p poisson -e 500 -c 0 -i 34 -a 0 -x {0.0 1.0 -1 ------- null}
+ -t 0.160705950361619 -s 0 -d 1 -p poisson -e 500 -c 0 -i 47 -a 0 -x {0.0 1.0 47 ------- null}
r -t 0.162688590179023 -s 0 -d 1 -p poisson -e 500 -c 0 -i 31 -a 0 -x {0.0 1.0 31 ------- null}
- -t 0.164688590179023 -s 0 -d 1 -p poisson -e 500 -c 0 -i 35 -a 0 -x {0.0 1.0 35 ------- null}
h -t 0.164688590179023 -s 0 -d 1 -p poisson -e 500 -c 0 -i 35 -a 0 -x {0.0 1.0 -1 ------- null}
+ -t 0.166291896622727 -s 0 -d 1 -p poisson -e 500 -c 0 -i 48 -a 0 -x {0.0 1.0 48 ------- null}
r -t 0.166688590179023 -s 0 -d 1 -p poisson -e 500 -c 0 -i 32 -a 0 -x {0.0 1.0 32 ------- null}
+ -t 0.167365319475151 -s 0 -d 1 -p poisson -e 500 -c 0 -i 49 -a 0 -x {0.0 1.0 49 ------- null}
- -t 0.168688590179023 -s 0 -d 1 -p poisson -e 500 -c 0 -i 36 -a 0 -x {0.0 1.0 36 ------- null}
h -t 0.168688590179023 -s 0 -d 1 -p poisson -e 500 -c 0 -i 36 -a 0 -x {0.0 1.0 -1 ------- null}
r -t 0.170688590179023 -s 0 -d 1 -p poisson -e 500 -c 0 -i 33 -a 0 -x {0.0 1.0 33 ------- null}
+ -t 0.170988528955654 -s 0 -d 1 -p poisson -e 500 -c 0 -i 50 -a 0 -x {0.0 1.0 50 ------- null}
+ -t 0.171944721310873 -s 0 -d 1 -p poisson -e 500 -c 0 -i 51 -a 0 -x {0.0 1.0 51 ------- null}
- -t 0.172688590179023 -s 0 -d 1 -p poisson -e 500 -c 0 -i 37 -a 0 -x {0.0 1.0 37 ------- null}
h -t 0.172688590179023 -s 0 -d 1 -p poisson -e 500 -c 0 -i 37 -a 0 -x {0.0 1.0 -1 ------- null}
+ -t 0.173564177854278 -s 0 -d 1 -p poisson -e 500 -c 0 -i 52 -a 0 -x {0.0 1.0 52 ------- null}
+ -t 0.173915220473856 -s 0 -d 1 -p poisson -e 500 -c 0 -i 53 -a 0 -x {0.0 1.0 53 ------- null}
r -t 0.174688590179023 -s 0 -d 1 -p poisson -e 500 -c 0 -i 34 -a 0 -x {0.0 1.0 34 ------- null}
- -t 0.176688590179023 -s 0 -d 1 -p poisson -e 500 -c 0 -i 38 -a 0 -x {0.0 1.0 38 ------- null}
h -t 0.176688590179023 -s 0 -d 1 -p poisson -e 500 -c 0 -i 38 -a 0 -x {0.0 1.0 -1 ------- null}
+ -t 0.177488772992591 -s 0 -d 1 -p poisson -e 500 -c 0 -i 54 -a 0 -x {0.0 1.0 54 ------- null}
r -t 0.178688590179023 -s 0 -d 1 -p poisson -e 500 -c 0 -i 35 -a 0 -x {0.0 1.0 35 ------- null}
+ -t 0.179059642548487 -s 0 -d 1 -p poisson -e 500 -c 0 -i 55 -a 0 -x {0.0 1.0 55 ------- null}
- -t 0.180688590179023 -s 0 -d 1 -p poisson -e 500 -c 0 -i 39 -a 0 -x {0.0 1.0 39 ------- null}
h -t 0.180688590179023 -s 0 -d 1 -p poisson -e 500 -c 0 -i 39 -a 0 -x {0.0 1.0 -1 ------- null}
+ -t 0.181337109990696 -s 0 -d 1 -p poisson -e 500 -c 0 -i 56 -a 0 -x {0.0 1.0 56 ------- null}
r -t 0.182688590179023 -s 0 -d 1 -p poisson -e 500 -c 0 -i 36 -a 0 -x {0.0 1.0 36 ------- null}
- -t 0.184688590179023 -s 0 -d 1 -p poisson -e 500 -c 0 -i 40 -a 0 -x {0.0 1.0 40 ------- null}
h -t 0.184688590179023 -s 0 -d 1 -p poisson -e 500 -c 0 -i 40 -a 0 -x {0.0 1.0 -1 ------- null}
r -t 0.186688590179023 -s 0 -d 1 -p poisson -e 500 -c 0 -i 37 -a 0 -x {0.0 1.0 37 ------- null}
- -t 0.188688590179023 -s 0 -d 1 -p poisson -e 500 -c 0 -i 41 -a 0 -x {0.0 1.0 41 ------- null}
h -t 0.188688590179023 -s 0 -d 1 -p poisson -e 500 -c 0 -i 41 -a 0 -x {0.0 1.0 -1 ------- null}
r -t 0.190688590179023 -s 0 -d 1 -p poisson -e 500 -c 0 -i 38 -a 0 -x {0.0 1.0 38 ------- null}
+ -t 0.190914394122843 -s 0 -d 1 -p poisson -e 500 -c 0 -i 57 -a 0 -x {0.0 1.0 57 ------- null}
- -t 0.192688590179023 -s 0 -d 1 -p poisson -e 500 -c 0 -i 42 -a 0 -x {0.0 1.0 42 ------- null}
h -t 0.192688590179023 -s 0 -d 1 -p poisson -e 500 -c 0 -i 42 -a 0 -x {0.0 1.0 -1 ------- null}
+ -t 0.193892597219072 -s 0 -d 1 -p poisson -e 500 -c 0 -i 58 -a 0 -x {0.0 1.0 58 ------- null}
r -t 0.194688590179023 -s 0 -d 1 -p poisson -e 500 -c 0 -i 39 -a 0 -x {0.0 1.0 39 ------- null}
- -t 0.196688590179023 -s 0 -d 1 -p poisson -e 500 -c 0 -i 43 -a 0 -x {0.0 1.0 43 ------- null}
h -t 0.196688590179023 -s 0 -d 1 -p poisson -e 500 -c 0 -i 43 -a 0 -x {0.0 1.0 -1 ------- null}
+ -t 0.198374883533161 -s 0 -d 1 -p poisson -e 500 -c 0 -i 59 -a 0 -x {0.0 1.0 59 ------- null}
r -t 0.198688590179023 -s 0 -d 1 -p poisson -e 500 -c 0 -i 40 -a 0 -x {0.0 1.0 40 ------- null}
+ -t 0.19902045150968 -s 0 -d 1 -p poisson -e 500 -c 0 -i 60 -a 0 -x {0.0 1.0 60 ------- null}
+ -t 0.199166185650024 -s 0 -d 1 -p poisson -e 500 -c 0 -i 61 -a 0 -x {0.0 1.0 61 ------- null}
+ -t 0.199853838772454 -s 0 -d 1 -p poisson -e 500 -c 0 -i 62 -a 0 -x {0.0 1.0 62 ------- null}
- -t 0.200688590179023 -s 0 -d 1 -p poisson -e 500 -c 0 -i 44 -a 0 -x {0.0 1.0 44 ------- null}
h -t 0.200688590179023 -s 0 -d 1 -p poisson -e 500 -c 0 -i 44 -a 0 -x {0.0 1.0 -1 ------- null}
r -t 0.202688590179023 -s 0 -d 1 -p poisson -e 500 -c 0 -i 41 -a 0 -x {0.0 1.0 41 ------- null}
+ -t 0.204057364635892 -s 0 -d 1 -p poisson -e 500 -c 0 -i 63 -a 0 -x {0.0 1.0 63 ------- null}
- -t 0.204688590179023 -s 0 -d 1 -p poisson -e 500 -c 0 -i 45 -a 0 -x {0.0 1.0 45 ------- null}
h -t 0.204688590179023 -s 0 -d 1 -p poisson -e 500 -c 0 -i 45 -a 0 -x {0.0 1.0 -1 ------- null}
+ -t 0.205027854525234 -s 0 -d 1 -p poisson -e 500 -c 0 -i 64 -a 0 -x {0.0 1.0 64 ------- null}
r -t 0.206688590179023 -s 0 -d 1 -p poisson -e 500 -c 0 -i 42 -a 0 -x {0.0 1.0 42 ------- null}
- -t 0.208688590179023 -s 0 -d 1 -p poisson -e 500 -c 0 -i 46 -a 0 -x {0.0 1.0 46 ------- null}
h -t 0.208688590179023 -s 0 -d 1 -p poisson -e 500 -c 0 -i 46 -a 0 -x {0.0 1.0 -1 ------- null}
+ -t 0.209619563916615 -s 0 -d 1 -p poisson -e 500 -c 0 -i 65 -a 0 -x {0.0 1.0 65 ------- null}
+ -t 0.209684326124291 -s 0 -d 1 -p poisson -e 500 -c 0 -i 66 -a 0 -x {0.0 1.0 66 ------- null}
r -t 0.210688590179023 -s 0 -d 1 -p poisson -e 500 -c 0 -i 43 -a 0 -x {0.0 1.0 43 ------- null}
- -t 0.212688590179023 -s 0 -d 1 -p poisson -e 500 -c 0 -i 47 -a 0 -x {0.0 1.0 47 ------- null}
h -t 0.212688590179023 -s 0 -d 1 -p poisson -e 500 -c 0 -i 47 -a 0 -x {0.0 1.0 -1 ------- null}
r -t 0.214688590179023 -s 0 -d 1 -p poisson -e 500 -c 0 -i 44 -a 0 -x {0.0 1.0 44 ------- null}
+ -t 0.21606560956133 -s 0 -d 1 -p poisson -e 500 -c 0 -i 67 -a 0 -x {0.0 1.0 67 ------- null}
- -t 0.216688590179023 -s 0 -d 1 -p poisson -e 500 -c 0 -i 48 -a 0 -x {0.0 1.0 48 ------- null}
h -t 0.216688590179023 -s 0 -d 1 -p poisson -e 500 -c 0 -i 48 -a 0 -x {0.0 1.0 -1 ------- null}
+ -t 0.217958522536832 -s 0 -d 1 -p poisson -e 500 -c 0 -i 68 -a 0 -x {0.0 1.0 68 ------- null}
r -t 0.218688590179023 -s 0 -d 1 -p poisson -e 500 -c 0 -i 45 -a 0 -x {0.0 1.0 45 ------- null}
- -t 0.220688590179023 -s 0 -d 1 -p poisson -e 500 -c 0 -i 49 -a 0 -x {0.0 1.0 49 ------- null}
h -t 0.220688590179023 -s 0 -d 1 -p poisson -e 500 -c 0 -i 49 -a 0 -x {0.0 1.0 -1 ------- null}
r -t 0.222688590179023 -s 0 -d 1 -p poisson -e 500 -c 0 -i 46 -a 0 -x {0.0 1.0 46 ------- null}
- -t 0.224688590179023 -s 0 -d 1 -p poisson -e 500 -c 0 -i 50 -a 0 -x {0.0 1.0 50 ------- null}
h -t 0.224688590179023 -s 0 -d 1 -p poisson -e 500 -c 0 -i 50 -a 0 -x {0.0 1.0 -1 ------- null}
+ -t 0.225940036480468 -s 0 -d 1 -p poisson -e 500 -c 0 -i 69 -a 0 -x {0.0 1.0 69 ------- null}
+ -t 0.226326446709826 -s 0 -d 1 -p poisson -e 500 -c 0 -i 70 -a 0 -x {0.0 1.0 70 ------- null}
r -t 0.226688590179023 -s 0 -d 1 -p poisson -e 500 -c 0 -i 47 -a 0 -x {0.0 1.0 47 ------- null}
+ -t 0.228004911261632 -s 0 -d 1 -p poisson -e 500 -c 0 -i 71 -a 0 -x {0.0 1.0 71 ------- null}
- -t 0.228688590179023 -s 0 -d 1 -p poisson -e 500 -c 0 -i 51 -a 0 -x {0.0 1.0 51 ------- null}
h -t 0.228688590179023 -s 0 -d 1 -p poisson -e 500 -c 0 -i 51 -a 0 -x {0.0 1.0 -1 ------- null}
+ -t 0.228825606745511 -s 0 -d 1 -p poisson -e 500 -c 0 -i 72 -a 0 -x {0.0 1.0 72 ------- null}
r -t 0.230688590179023 -s 0 -d 1 -p poisson -e 500 -c 0 -i 48 -a 0 -x {0.0 1.0 48 ------- null}
+ -t 0.23113120646781 -s 0 -d 1 -p poisson -e 500 -c 0 -i 73 -a 0 -x {0.0 1.0 73 ------- null}
- -t 0.232688590179023 -s 0 -d 1 -p poisson -e 500 -c 0 -i 52 -a 0 -x {0.0 1.0 52 ------- null}
h -t 0.232688590179023 -s 0 -d 1 -p poisson -e 500 -c 0 -i 52 -a 0 -x {0.0 1.0 -1 ------- null}
r -t 0.234688590179023 -s 0 -d 1 -p poisson -e 500 -c 0 -i 49 -a 0 -x {0.0 1.0 49 ------- null}
- -t 0.236688590179023 -s 0 -d 1 -p poisson -e 500 -c 0 -i 53 -a 0 -x {0.0 1.0 53 ------- null}
h -t 0.236688590179023 -s 0 -d 1 -p poisson -e 500 -c 0 -i 53 -a 0 -x {0.0 1.0 -1 ------- null}
+ -t 0.237606264238158 -s 0 -d 1 -p poisson -e 500 -c 0 -i 74 -a 0 -x {0.0 1.0 74 ------- null}
+ -t 0.238153740087457 -s 0 -d 1 -p poisson -e 500 -c 0 -i 75 -a 0 -x {0.0 1.0 75 ------- null}
+ -t 0.23842627732209 -s 0 -d 1 -p poisson -e 500 -c 0 -i 76 -a 0 -x {0.0 1.0 76 ------- null}
r -t 0.238688590179023 -s 0 -d 1 -p poisson -e 500 -c 0 -i 50 -a 0 -x {0.0 1.0 50 ------- null}
+ -t 0.239272668932138 -s 0 -d 1 -p poisson -e 500 -c 0 -i 77 -a 0 -x {0.0 1.0 77 ------- null}
+ -t 0.239629830794619 -s 0 -d 1 -p poisson -e 500 -c 0 -i 78 -a 0 -x {0.0 1.0 78 ------- null}
- -t 0.240688590179023 -s 0 -d 1 -p poisson -e 500 -c 0 -i 54 -a 0 -x {0.0 1.0 54 ------- null}
h -t 0.240688590179023 -s 0 -d 1 -p poisson -e 500 -c 0 -i 54 -a 0 -x {0.0 1.0 -1 ------- null}
+ -t 0.241054480293872 -s 0 -d 1 -p poisson -e 500 -c 0 -i 79 -a 0 -x {0.0 1.0 79 ------- null}
+ -t 0.241872458576513 -s 0 -d 1 -p poisson -e 500 -c 0 -i 80 -a 0 -x {0.0 1.0 80 ------- null}
+ -t 0.242460810255655 -s 0 -d 1 -p poisson -e 500 -c 0 -i 81 -a 0 -x {0.0 1.0 81 ------- null}
r -t 0.242688590179023 -s 0 -d 1 -p poisson -e 500 -c 0 -i 51 -a 0 -x {0.0 1.0 51 ------- null}
- -t 0.244688590179023 -s 0 -d 1 -p poisson -e 500 -c 0 -i 55 -a 0 -x {0.0 1.0 55 ------- null}
h -t 0.244688590179023 -s 0 -d 1 -p poisson -e 500 -c 0 -i 55 -a 0 -x {0.0 1.0 -1 ------- null}
+ -t 0.245214570282654 -s 0 -d 1 -p poisson -e 500 -c 0 -i 82 -a 0 -x {0.0 1.0 82 ------- null}
r -t 0.246688590179023 -s 0 -d 1 -p poisson -e 500 -c 0 -i 52 -a 0 -x {0.0 1.0 52 ------- null}
+ -t 0.246768341881887 -s 0 -d 1 -p poisson -e 500 -c 0 -i 83 -a 0 -x {0.0 1.0 83 ------- null}
+ -t 0.247311949594163 -s 0 -d 1 -p poisson -e 500 -c 0 -i 84 -a 0 -x {0.0 1.0 84 ------- null}
+ -t 0.24796163820598 -s 0 -d 1 -p poisson -e 500 -c 0 -i 85 -a 0 -x {0.0 1.0 85 ------- null}
- -t 0.248688590179023 -s 0 -d 1 -p poisson -e 500 -c 0 -i 56 -a 0 -x {0.0 1.0 56 ------- null}
h -t 0.248688590179023 -s 0 -d 1 -p poisson -e 500 -c 0 -i 56 -a 0 -x {0.0 1.0 -1 ------- null}
+ -t 0.249055471196492 -s 0 -d 1 -p poisson -e 500 -c 0 -i 86 -a 0 -x {0.0 1.0 86 ------- null}
r -t 0.250688590179023 -s 0 -d 1 -p poisson -e 500 -c 0 -i 53 -a 0 -x {0.0 1.0 53 ------- null}
- -t 0.252688590179023 -s 0 -d 1 -p poisson -e 500 -c 0 -i 57 -a 0 -x {0.0 1.0 57 ------- null}
h -t 0.252688590179023 -s 0 -d 1 -p poisson -e 500 -c 0 -i 57 -a 0 -x {0.0 1.0 -1 ------- null}
+ -t 0.254114663500762 -s 0 -d 1 -p poisson -e 500 -c 0 -i 87 -a 0 -x {0.0 1.0 87 ------- null}
r -t 0.254688590179023 -s 0 -d 1 -p poisson -e 500 -c 0 -i 54 -a 0 -x {0.0 1.0 54 ------- null}
+ -t 0.256515924043754 -s 0 -d 1 -p poisson -e 500 -c 0 -i 88 -a 0 -x {0.0 1.0 88 ------- null}
- -t 0.256688590179023 -s 0 -d 1 -p poisson -e 500 -c 0 -i 58 -a 0 -x {0.0 1.0 58 ------- null}
h -t 0.256688590179023 -s 0 -d 1 -p poisson -e 500 -c 0 -i 58 -a 0 -x {0.0 1.0 -1 ------- null}
+ -t 0.258129020101036 -s 0 -d 1 -p poisson -e 500 -c 0 -i 89 -a 0 -x {0.0 1.0 89 ------- null}
r -t 0.258688590179023 -s 0 -d 1 -p poisson -e 500 -c 0 -i 55 -a 0 -x {0.0 1.0 55 ------- null}
- -t 0.260688590179023 -s 0 -d 1 -p poisson -e 500 -c 0 -i 59 -a 0 -x {0.0 1.0 59 ------- null}
h -t 0.260688590179023 -s 0 -d 1 -p poisson -e 500 -c 0 -i 59 -a 0 -x {0.0 1.0 -1 ------- null}
+ -t 0.260754511507238 -s 0 -d 1 -p poisson -e 500 -c 0 -i 90 -a 0 -x {0.0 1.0 90 ------- null}
r -t 0.262688590179023 -s 0 -d 1 -p poisson -e 500 -c 0 -i 56 -a 0 -x {0.0 1.0 56 ------- null}
- -t 0.264688590179023 -s 0 -d 1 -p poisson -e 500 -c 0 -i 60 -a 0 -x {0.0 1.0 60 ------- null}
h -t 0.264688590179023 -s 0 -d 1 -p poisson -e 500 -c 0 -i 60 -a 0 -x {0.0 1.0 -1 ------- null}
r -t 0.266688590179023 -s 0 -d 1 -p poisson -e 500 -c 0 -i 57 -a 0 -x {0.0 1.0 57 ------- null}
- -t 0.268688590179023 -s 0 -d 1 -p poisson -e 500 -c 0 -i 61 -a 0 -x {0.0 1.0 61 ------- null}
h -t 0.268688590179023 -s 0 -d 1 -p poisson -e 500 -c 0 -i 61 -a 0 -x {0.0 1.0 -1 ------- null}
r -t 0.270688590179023 -s 0 -d 1 -p poisson -e 500 -c 0 -i 58 -a 0 -x {0.0 1.0 58 ------- null}
- -t 0.272688590179023 -s 0 -d 1 -p poisson -e 500 -c 0 -i 62 -a 0 -x {0.0 1.0 62 ------- null}
h -t 0.272688590179023 -s 0 -d 1 -p poisson -e 500 -c 0 -i 62 -a 0 -x {0.0 1.0 -1 ------- null}
r -t 0.274688590179023 -s 0 -d 1 -p poisson -e 500 -c 0 -i 59 -a 0 -x {0.0 1.0 59 ------- null}
- -t 0.276688590179023 -s 0 -d 1 -p poisson -e 500 -c 0 -i 63 -a 0 -x {0.0 1.0 63 ------- null}
h -t 0.276688590179023 -s 0 -d 1 -p poisson -e 500 -c 0 -i 63 -a 0 -x {0.0 1.0 -1 ------- null}
r -t 0.278688590179023 -s 0 -d 1 -p poisson -e 500 -c 0 -i 60 -a 0 -x {0.0 1.0 60 ------- null}
- -t 0.280688590179023 -s 0 -d 1 -p poisson -e 500 -c 0 -i 64 -a 0 -x {0.0 1.0 64 ------- null}
h -t 0.280688590179023 -s 0 -d 1 -p poisson -e 500 -c 0 -i 64 -a 0 -x {0.0 1.0 -1 ------- null}
r -t 0.282688590179023 -s 0 -d 1 -p poisson -e 500 -c 0 -i 61 -a 0 -x {0.0 1.0 61 ------- null}
+ -t 0.283830145355741 -s 0 -d 1 -p poisson -e 500 -c 0 -i 91 -a 0 -x {0.0 1.0 91 ------- null}
- -t 0.284688590179023 -s 0 -d 1 -p poisson -e 500 -c 0 -i 65 -a 0 -x {0.0 1.0 65 ------- null}
h -t 0.284688590179023 -s 0 -d 1 -p poisson -e 500 -c 0 -i 65 -a 0 -x {0.0 1.0 -1 ------- null}
r -t 0.286688590179023 -s 0 -d 1 -p poisson -e 500 -c 0 -i 62 -a 0 -x {0.0 1.0 62 ------- null}
- -t 0.288688590179023 -s 0 -d 1 -p poisson -e 500 -c 0 -i 66 -a 0 -x {0.0 1.0 66 ------- null}
h -t 0.288688590179023 -s 0 -d 1 -p poisson -e 500 -c 0 -i 66 -a 0 -x {0.0 1.0 -1 ------- null}
+ -t 0.29045347504677 -s 0 -d 1 -p poisson -e 500 -c 0 -i 92 -a 0 -x {0.0 1.0 92 ------- null}
r -t 0.290688590179023 -s 0 -d 1 -p poisson -e 500 -c 0 -i 63 -a 0 -x {0.0 1.0 63 ------- null}
- -t 0.292688590179023 -s 0 -d 1 -p poisson -e 500 -c 0 -i 67 -a 0 -x {0.0 1.0 67 ------- null}
h -t 0.292688590179023 -s 0 -d 1 -p poisson -e 500 -c 0 -i 67 -a 0 -x {0.0 1.0 -1 ------- null}
+ -t 0.293392074120833 -s 0 -d 1 -p poisson -e 500 -c 0 -i 93 -a 0 -x {0.0 1.0 93 ------- null}
+ -t 0.294359677853561 -s 0 -d 1 -p poisson -e 500 -c 0 -i 94 -a 0 -x {0.0 1.0 94 ------- null}
+ -t 0.294605496403095 -s 0 -d 1 -p poisson -e 500 -c 0 -i 95 -a 0 -x {0.0 1.0 95 ------- null}
r -t 0.294688590179023 -s 0 -d 1 -p poisson -e 500 -c 0 -i 64 -a 0 -x {0.0 1.0 64 ------- null}
- -t 0.296688590179023 -s 0 -d 1 -p poisson -e 500 -c 0 -i 68 -a 0 -x {0.0 1.0 68 ------- null}
h -t 0.296688590179023 -s 0 -d 1 -p poisson -e 500 -c 0 -i 68 -a 0 -x {0.0 1.0 -1 ------- null}
r -t 0.298688590179023 -s 0 -d 1 -p poisson -e 500 -c 0 -i 65 -a 0 -x {0.0 1.0 65 ------- null}
- -t 0.300688590179023 -s 0 -d 1 -p poisson -e 500 -c 0 -i 69 -a 0 -x {0.0 1.0 69 ------- null}
h -t 0.300688590179023 -s 0 -d 1 -p poisson -e 500 -c 0 -i 69 -a 0 -x {0.0 1.0 -1 ------- null}
r -t 0.302688590179023 -s 0 -d 1 -p poisson -e 500 -c 0 -i 66 -a 0 -x {0.0 1.0 66 ------- null}
+ -t 0.303718989360734 -s 0 -d 1 -p poisson -e 500 -c 0 -i 96 -a 0 -x {0.0 1.0 96 ------- null}
- -t 0.304688590179023 -s 0 -d 1 -p poisson -e 500 -c 0 -i 70 -a 0 -x {0.0 1.0 70 ------- null}
h -t 0.304688590179023 -s 0 -d 1 -p poisson -e 500 -c 0 -i 70 -a 0 -x {0.0 1.0 -1 ------- null}
+ -t 0.306404804167865 -s 0 -d 1 -p poisson -e 500 -c 0 -i 97 -a 0 -x {0.0 1.0 97 ------- null}
r -t 0.306688590179023 -s 0 -d 1 -p poisson -e 500 -c 0 -i 67 -a 0 -x {0.0 1.0 67 ------- null}
- -t 0.308688590179023 -s 0 -d 1 -p poisson -e 500 -c 0 -i 71 -a 0 -x {0.0 1.0 71 ------- null}