V -t * -v 1.0a5 -a 0
A -t * -n 1 -p 0 -o 0xffffffff -c 31 -a 1
A -t * -h 1 -m 2147483647 -s 0
n -t * -a 0 -s 0 -S UP -v circle -c black -i black
n -t * -a 1 -s 1 -S UP -v circle -c black -i black
l -t * -s 0 -d 1 -S UP -r 1000000 -D 0.01 -c black -o right
q -t * -s 1 -d 0 -a 0.5
q -t * -s 0 -d 1 -a 0.5
+ -t 0 -s 0 -d 1 -p poisson -e 500 -c 0 -i 0 -a 0 -x {0.0 1.0 0 ------- null}
- -t 0 -s 0 -d 1 -p poisson -e 500 -c 0 -i 0 -a 0 -x {0.0 1.0 0 ------- null}
h -t 0 -s 0 -d 1 -p poisson -e 500 -c 0 -i 0 -a 0 -x {0.0 1.0 -1 ------- null}
r -t 0.014 -s 0 -d 1 -p poisson -e 500 -c 0 -i 0 -a 0 -x {0.0 1.0 0 ------- null}
+ -t 0.0159756183470819 -s 0 -d 1 -p poisson -e 500 -c 0 -i 1 -a 0 -x {0.0 1.0 1 ------- null}
- -t 0.0159756183470819 -s 0 -d 1 -p poisson -e 500 -c 0 -i 1 -a 0 -x {0.0 1.0 1 ------- null}
h -t 0.0159756183470819 -s 0 -d 1 -p poisson -e 500 -c 0 -i 1 -a 0 -x {0.0 1.0 -1 ------- null}
+ -t 0.0171500214417774 -s 0 -d 1 -p poisson -e 500 -c 0 -i 2 -a 0 -x {0.0 1.0 2 ------- null}
- -t 0.0199756183470819 -s 0 -d 1 -p poisson -e 500 -c 0 -i 2 -a 0 -x {0.0 1.0 2 ------- null}
h -t 0.0199756183470819 -s 0 -d 1 -p poisson -e 500 -c 0 -i 2 -a 0 -x {0.0 1.0 -1 ------- null}
+ -t 0.0256583917482564 -s 0 -d 1 -p poisson -e 500 -c 0 -i 3 -a 0 -x {0.0 1.0 3 ------- null}
- -t 0.0256583917482564 -s 0 -d 1 -p poisson -e 500 -c 0 -i 3 -a 0 -x {0.0 1.0 3 ------- null}
h -t 0.0256583917482564 -s 0 -d 1 -p poisson -e 500 -c 0 -i 3 -a 0 -x {0.0 1.0 -1 ------- null}
r -t 0.0299756183470819 -s 0 -d 1 -p poisson -e 500 -c 0 -i 1 -a 0 -x {0.0 1.0 1 ------- null}
+ -t 0.0305164426342669 -s 0 -d 1 -p poisson -e 500 -c 0 -i 4 -a 0 -x {0.0 1.0 4 ------- null}
- -t 0.0305164426342669 -s 0 -d 1 -p poisson -e 500 -c 0 -i 4 -a 0 -x {0.0 1.0 4 ------- null}
h -t 0.0305164426342669 -s 0 -d 1 -p poisson -e 500 -c 0 -i 4 -a 0 -x {0.0 1.0 -1 ------- null}
+ -t 0.0321530772827239 -s 0 -d 1 -p poisson -e 500 -c 0 -i 5 -a 0 -x {0.0 1.0 5 ------- null}
+ -t 0.0326014768668415 -s 0 -d 1 -p poisson -e 500 -c 0 -i 6 -a 0 -x {0.0 1.0 6 ------- null}
r -t 0.0339756183470819 -s 0 -d 1 -p poisson -e 500 -c 0 -i 2 -a 0 -x {0.0 1.0 2 ------- null}
- -t 0.0345164426342669 -s 0 -d 1 -p poisson -e 500 -c 0 -i 5 -a 0 -x {0.0 1.0 5 ------- null}
h -t 0.0345164426342669 -s 0 -d 1 -p poisson -e 500 -c 0 -i 5 -a 0 -x {0.0 1.0 -1 ------- null}
+ -t 0.0349248253293086 -s 0 -d 1 -p poisson -e 500 -c 0 -i 7 -a 0 -x {0.0 1.0 7 ------- null}
+ -t 0.0353303407248614 -s 0 -d 1 -p poisson -e 500 -c 0 -i 8 -a 0 -x {0.0 1.0 8 ------- null}
+ -t 0.0382300724756261 -s 0 -d 1 -p poisson -e 500 -c 0 -i 9 -a 0 -x {0.0 1.0 9 ------- null}
- -t 0.0385164426342669 -s 0 -d 1 -p poisson -e 500 -c 0 -i 6 -a 0 -x {0.0 1.0 6 ------- null}
h -t 0.0385164426342669 -s 0 -d 1 -p poisson -e 500 -c 0 -i 6 -a 0 -x {0.0 1.0 -1 ------- null}
+ -t 0.0391261962561837 -s 0 -d 1 -p poisson -e 500 -c 0 -i 10 -a 0 -x {0.0 1.0 10 ------- null}
r -t 0.0396583917482564 -s 0 -d 1 -p poisson -e 500 -c 0 -i 3 -a 0 -x {0.0 1.0 3 ------- null}
+ -t 0.0414745126245904 -s 0 -d 1 -p poisson -e 500 -c 0 -i 11 -a 0 -x {0.0 1.0 11 ------- null}
+ -t 0.041831992094345 -s 0 -d 1 -p poisson -e 500 -c 0 -i 12 -a 0 -x {0.0 1.0 12 ------- null}
- -t 0.0425164426342669 -s 0 -d 1 -p poisson -e 500 -c 0 -i 7 -a 0 -x {0.0 1.0 7 ------- null}
h -t 0.0425164426342669 -s 0 -d 1 -p poisson -e 500 -c 0 -i 7 -a 0 -x {0.0 1.0 -1 ------- null}
r -t 0.0445164426342669 -s 0 -d 1 -p poisson -e 500 -c 0 -i 4 -a 0 -x {0.0 1.0 4 ------- null}
+ -t 0.0454459973310632 -s 0 -d 1 -p poisson -e 500 -c 0 -i 13 -a 0 -x {0.0 1.0 13 ------- null}
- -t 0.0465164426342669 -s 0 -d 1 -p poisson -e 500 -c 0 -i 8 -a 0 -x {0.0 1.0 8 ------- null}
h -t 0.0465164426342669 -s 0 -d 1 -p poisson -e 500 -c 0 -i 8 -a 0 -x {0.0 1.0 -1 ------- null}
r -t 0.0485164426342669 -s 0 -d 1 -p poisson -e 500 -c 0 -i 5 -a 0 -x {0.0 1.0 5 ------- null}
- -t 0.0505164426342669 -s 0 -d 1 -p poisson -e 500 -c 0 -i 9 -a 0 -x {0.0 1.0 9 ------- null}
h -t 0.0505164426342669 -s 0 -d 1 -p poisson -e 500 -c 0 -i 9 -a 0 -x {0.0 1.0 -1 ------- null}
+ -t 0.0517486860116592 -s 0 -d 1 -p poisson -e 500 -c 0 -i 14 -a 0 -x {0.0 1.0 14 ------- null}
r -t 0.0525164426342669 -s 0 -d 1 -p poisson -e 500 -c 0 -i 6 -a 0 -x {0.0 1.0 6 ------- null}
+ -t 0.0526410487933513 -s 0 -d 1 -p poisson -e 500 -c 0 -i 15 -a 0 -x {0.0 1.0 15 ------- null}
- -t 0.0545164426342669 -s 0 -d 1 -p poisson -e 500 -c 0 -i 10 -a 0 -x {0.0 1.0 10 ------- null}
h -t 0.0545164426342669 -s 0 -d 1 -p poisson -e 500 -c 0 -i 10 -a 0 -x {0.0 1.0 -1 ------- null}
r -t 0.0565164426342669 -s 0 -d 1 -p poisson -e 500 -c 0 -i 7 -a 0 -x {0.0 1.0 7 ------- null}
+ -t 0.0569875293469036 -s 0 -d 1 -p poisson -e 500 -c 0 -i 16 -a 0 -x {0.0 1.0 16 ------- null}
+ -t 0.057289808488496 -s 0 -d 1 -p poisson -e 500 -c 0 -i 17 -a 0 -x {0.0 1.0 17 ------- null}
- -t 0.0585164426342669 -s 0 -d 1 -p poisson -e 500 -c 0 -i 11 -a 0 -x {0.0 1.0 11 ------- null}
h -t 0.0585164426342669 -s 0 -d 1 -p poisson -e 500 -c 0 -i 11 -a 0 -x {0.0 1.0 -1 ------- null}
+ -t 0.0590074719601929 -s 0 -d 1 -p poisson -e 500 -c 0 -i 18 -a 0 -x {0.0 1.0 18 ------- null}
r -t 0.0605164426342669 -s 0 -d 1 -p poisson -e 500 -c 0 -i 8 -a 0 -x {0.0 1.0 8 ------- null}
+ -t 0.0624956374801712 -s 0 -d 1 -p poisson -e 500 -c 0 -i 19 -a 0 -x {0.0 1.0 19 ------- null}
- -t 0.0625164426342669 -s 0 -d 1 -p poisson -e 500 -c 0 -i 12 -a 0 -x {0.0 1.0 12 ------- null}
h -t 0.0625164426342669 -s 0 -d 1 -p poisson -e 500 -c 0 -i 12 -a 0 -x {0.0 1.0 -1 ------- null}
r -t 0.0645164426342669 -s 0 -d 1 -p poisson -e 500 -c 0 -i 9 -a 0 -x {0.0 1.0 9 ------- null}
- -t 0.0665164426342669 -s 0 -d 1 -p poisson -e 500 -c 0 -i 13 -a 0 -x {0.0 1.0 13 ------- null}
h -t 0.0665164426342669 -s 0 -d 1 -p poisson -e 500 -c 0 -i 13 -a 0 -x {0.0 1.0 -1 ------- null}
+ -t 0.0672216063013421 -s 0 -d 1 -p poisson -e 500 -c 0 -i 20 -a 0 -x {0.0 1.0 20 ------- null}
+ -t 0.0676503987590882 -s 0 -d 1 -p poisson -e 500 -c 0 -i 21 -a 0 -x {0.0 1.0 21 ------- null}
r -t 0.0685164426342669 -s 0 -d 1 -p poisson -e 500 -c 0 -i 10 -a 0 -x {0.0 1.0 10 ------- null}
+ -t 0.0697572501177869 -s 0 -d 1 -p poisson -e 500 -c 0 -i 22 -a 0 -x {0.0 1.0 22 ------- null}
- -t 0.0705164426342669 -s 0 -d 1 -p poisson -e 500 -c 0 -i 14 -a 0 -x {0.0 1.0 14 ------- null}
h -t 0.0705164426342669 -s 0 -d 1 -p poisson -e 500 -c 0 -i 14 -a 0 -x {0.0 1.0 -1 ------- null}
+ -t 0.0724661598482713 -s 0 -d 1 -p poisson -e 500 -c 0 -i 23 -a 0 -x {0.0 1.0 23 ------- null}
r -t 0.0725164426342669 -s 0 -d 1 -p poisson -e 500 -c 0 -i 11 -a 0 -x {0.0 1.0 11 ------- null}
+ -t 0.0742557777214712 -s 0 -d 1 -p poisson -e 500 -c 0 -i 24 -a 0 -x {0.0 1.0 24 ------- null}
- -t 0.0745164426342669 -s 0 -d 1 -p poisson -e 500 -c 0 -i 15 -a 0 -x {0.0 1.0 15 ------- null}
h -t 0.0745164426342669 -s 0 -d 1 -p poisson -e 500 -c 0 -i 15 -a 0 -x {0.0 1.0 -1 ------- null}
+ -t 0.0755688343630427 -s 0 -d 1 -p poisson -e 500 -c 0 -i 25 -a 0 -x {0.0 1.0 25 ------- null}
r -t 0.0765164426342669 -s 0 -d 1 -p poisson -e 500 -c 0 -i 12 -a 0 -x {0.0 1.0 12 ------- null}
+ -t 0.0770954761335566 -s 0 -d 1 -p poisson -e 500 -c 0 -i 26 -a 0 -x {0.0 1.0 26 ------- null}
+ -t 0.0778309281779566 -s 0 -d 1 -p poisson -e 500 -c 0 -i 27 -a 0 -x {0.0 1.0 27 ------- null}
+ -t 0.0781277720965669 -s 0 -d 1 -p poisson -e 500 -c 0 -i 28 -a 0 -x {0.0 1.0 28 ------- null}
+ -t 0.0784768950978073 -s 0 -d 1 -p poisson -e 500 -c 0 -i 29 -a 0 -x {0.0 1.0 29 ------- null}
- -t 0.0785164426342669 -s 0 -d 1 -p poisson -e 500 -c 0 -i 16 -a 0 -x {0.0 1.0 16 ------- null}
h -t 0.0785164426342669 -s 0 -d 1 -p poisson -e 500 -c 0 -i 16 -a 0 -x {0.0 1.0 -1 ------- null}
r -t 0.0805164426342669 -s 0 -d 1 -p poisson -e 500 -c 0 -i 13 -a 0 -x {0.0 1.0 13 ------- null}
+ -t 0.0815311418164582 -s 0 -d 1 -p poisson -e 500 -c 0 -i 30 -a 0 -x {0.0 1.0 30 ------- null}
- -t 0.0825164426342669 -s 0 -d 1 -p poisson -e 500 -c 0 -i 17 -a 0 -x {0.0 1.0 17 ------- null}
h -t 0.0825164426342669 -s 0 -d 1 -p poisson -e 500 -c 0 -i 17 -a 0 -x {0.0 1.0 -1 ------- null}
+ -t 0.0843751869519405 -s 0 -d 1 -p poisson -e 500 -c 0 -i 31 -a 0 -x {0.0 1.0 31 ------- null}
r -t 0.0845164426342669 -s 0 -d 1 -p poisson -e 500 -c 0 -i 14 -a 0 -x {0.0 1.0 14 ------- null}
+ -t 0.0846976228525736 -s 0 -d 1 -p poisson -e 500 -c 0 -i 32 -a 0 -x {0.0 1.0 32 ------- null}
+ -t 0.0854767602789757 -s 0 -d 1 -p poisson -e 500 -c 0 -i 33 -a 0 -x {0.0 1.0 33 ------- null}
+ -t 0.0860197691756396 -s 0 -d 1 -p poisson -e 500 -c 0 -i 34 -a 0 -x {0.0 1.0 34 ------- null}
+ -t 0.0862195303602239 -s 0 -d 1 -p poisson -e 500 -c 0 -i 35 -a 0 -x {0.0 1.0 35 ------- null}
- -t 0.0865164426342669 -s 0 -d 1 -p poisson -e 500 -c 0 -i 18 -a 0 -x {0.0 1.0 18 ------- null}
h -t 0.0865164426342669 -s 0 -d 1 -p poisson -e 500 -c 0 -i 18 -a 0 -x {0.0 1.0 -1 ------- null}
+ -t 0.0880247050812081 -s 0 -d 1 -p poisson -e 500 -c 0 -i 36 -a 0 -x {0.0 1.0 36 ------- null}
r -t 0.0885164426342669 -s 0 -d 1 -p poisson -e 500 -c 0 -i 15 -a 0 -x {0.0 1.0 15 ------- null}
- -t 0.0905164426342669 -s 0 -d 1 -p poisson -e 500 -c 0 -i 19 -a 0 -x {0.0 1.0 19 ------- null}
h -t 0.0905164426342669 -s 0 -d 1 -p poisson -e 500 -c 0 -i 19 -a 0 -x {0.0 1.0 -1 ------- null}
+ -t 0.0924538814993734 -s 0 -d 1 -p poisson -e 500 -c 0 -i 37 -a 0 -x {0.0 1.0 37 ------- null}
r -t 0.0925164426342669 -s 0 -d 1 -p poisson -e 500 -c 0 -i 16 -a 0 -x {0.0 1.0 16 ------- null}
+ -t 0.0942655351982619 -s 0 -d 1 -p poisson -e 500 -c 0 -i 38 -a 0 -x {0.0 1.0 38 ------- null}
- -t 0.094516442634267 -s 0 -d 1 -p poisson -e 500 -c 0 -i 20 -a 0 -x {0.0 1.0 20 ------- null}
h -t 0.094516442634267 -s 0 -d 1 -p poisson -e 500 -c 0 -i 20 -a 0 -x {0.0 1.0 -1 ------- null}
r -t 0.0965164426342669 -s 0 -d 1 -p poisson -e 500 -c 0 -i 17 -a 0 -x {0.0 1.0 17 ------- null}
+ -t 0.0976149260029134 -s 0 -d 1 -p poisson -e 500 -c 0 -i 39 -a 0 -x {0.0 1.0 39 ------- null}
+ -t 0.097853746742259 -s 0 -d 1 -p poisson -e 500 -c 0 -i 40 -a 0 -x {0.0 1.0 40 ------- null}
+ -t 0.097964212085556 -s 0 -d 1 -p poisson -e 500 -c 0 -i 41 -a 0 -x {0.0 1.0 41 ------- null}
+ -t 0.0981942531969799 -s 0 -d 1 -p poisson -e 500 -c 0 -i 42 -a 0 -x {0.0 1.0 42 ------- null}
- -t 0.098516442634267 -s 0 -d 1 -p poisson -e 500 -c 0 -i 21 -a 0 -x {0.0 1.0 21 ------- null}
h -t 0.098516442634267 -s 0 -d 1 -p poisson -e 500 -c 0 -i 21 -a 0 -x {0.0 1.0 -1 ------- null}
r -t 0.100516442634267 -s 0 -d 1 -p poisson -e 500 -c 0 -i 18 -a 0 -x {0.0 1.0 18 ------- null}
- -t 0.102516442634267 -s 0 -d 1 -p poisson -e 500 -c 0 -i 22 -a 0 -x {0.0 1.0 22 ------- null}
h -t 0.102516442634267 -s 0 -d 1 -p poisson -e 500 -c 0 -i 22 -a 0 -x {0.0 1.0 -1 ------- null}
+ -t 0.102572206880579 -s 0 -d 1 -p poisson -e 500 -c 0 -i 43 -a 0 -x {0.0 1.0 43 ------- null}
r -t 0.104516442634267 -s 0 -d 1 -p poisson -e 500 -c 0 -i 19 -a 0 -x {0.0 1.0 19 ------- null}
- -t 0.106516442634267 -s 0 -d 1 -p poisson -e 500 -c 0 -i 23 -a 0 -x {0.0 1.0 23 ------- null}
h -t 0.106516442634267 -s 0 -d 1 -p poisson -e 500 -c 0 -i 23 -a 0 -x {0.0 1.0 -1 ------- null}
+ -t 0.108252995677745 -s 0 -d 1 -p poisson -e 500 -c 0 -i 44 -a 0 -x {0.0 1.0 44 ------- null}
r -t 0.108516442634267 -s 0 -d 1 -p poisson -e 500 -c 0 -i 20 -a 0 -x {0.0 1.0 20 ------- null}
- -t 0.110516442634267 -s 0 -d 1 -p poisson -e 500 -c 0 -i 24 -a 0 -x {0.0 1.0 24 ------- null}
h -t 0.110516442634267 -s 0 -d 1 -p poisson -e 500 -c 0 -i 24 -a 0 -x {0.0 1.0 -1 ------- null}
r -t 0.112516442634267 -s 0 -d 1 -p poisson -e 500 -c 0 -i 21 -a 0 -x {0.0 1.0 21 ------- null}
- -t 0.114516442634267 -s 0 -d 1 -p poisson -e 500 -c 0 -i 25 -a 0 -x {0.0 1.0 25 ------- null}
h -t 0.114516442634267 -s 0 -d 1 -p poisson -e 500 -c 0 -i 25 -a 0 -x {0.0 1.0 -1 ------- null}
r -t 0.116516442634267 -s 0 -d 1 -p poisson -e 500 -c 0 -i 22 -a 0 -x {0.0 1.0 22 ------- null}
+ -t 0.117307870445422 -s 0 -d 1 -p poisson -e 500 -c 0 -i 45 -a 0 -x {0.0 1.0 45 ------- null}
+ -t 0.118346166134628 -s 0 -d 1 -p poisson -e 500 -c 0 -i 46 -a 0 -x {0.0 1.0 46 ------- null}
- -t 0.118516442634267 -s 0 -d 1 -p poisson -e 500 -c 0 -i 26 -a 0 -x {0.0 1.0 26 ------- null}
h -t 0.118516442634267 -s 0 -d 1 -p poisson -e 500 -c 0 -i 26 -a 0 -x {0.0 1.0 -1 ------- null}
r -t 0.120516442634267 -s 0 -d 1 -p poisson -e 500 -c 0 -i 23 -a 0 -x {0.0 1.0 23 ------- null}
+ -t 0.120529462771214 -s 0 -d 1 -p poisson -e 500 -c 0 -i 47 -a 0 -x {0.0 1.0 47 ------- null}
- -t 0.122516442634267 -s 0 -d 1 -p poisson -e 500 -c 0 -i 27 -a 0 -x {0.0 1.0 27 ------- null}
h -t 0.122516442634267 -s 0 -d 1 -p poisson -e 500 -c 0 -i 27 -a 0 -x {0.0 1.0 -1 ------- null}
r -t 0.124516442634267 -s 0 -d 1 -p poisson -e 500 -c 0 -i 24 -a 0 -x {0.0 1.0 24 ------- null}
+ -t 0.124718922467045 -s 0 -d 1 -p poisson -e 500 -c 0 -i 48 -a 0 -x {0.0 1.0 48 ------- null}
+ -t 0.125523989606363 -s 0 -d 1 -p poisson -e 500 -c 0 -i 49 -a 0 -x {0.0 1.0 49 ------- null}
- -t 0.126516442634267 -s 0 -d 1 -p poisson -e 500 -c 0 -i 28 -a 0 -x {0.0 1.0 28 ------- null}
h -t 0.126516442634267 -s 0 -d 1 -p poisson -e 500 -c 0 -i 28 -a 0 -x {0.0 1.0 -1 ------- null}
+ -t 0.128241396716741 -s 0 -d 1 -p poisson -e 500 -c 0 -i 50 -a 0 -x {0.0 1.0 50 ------- null}
r -t 0.128516442634267 -s 0 -d 1 -p poisson -e 500 -c 0 -i 25 -a 0 -x {0.0 1.0 25 ------- null}
+ -t 0.128958540983155 -s 0 -d 1 -p poisson -e 500 -c 0 -i 51 -a 0 -x {0.0 1.0 51 ------- null}
+ -t 0.130173133390709 -s 0 -d 1 -p poisson -e 500 -c 0 -i 52 -a 0 -x {0.0 1.0 52 ------- null}
+ -t 0.130436415355392 -s 0 -d 1 -p poisson -e 500 -c 0 -i 53 -a 0 -x {0.0 1.0 53 ------- null}
- -t 0.130516442634267 -s 0 -d 1 -p poisson -e 500 -c 0 -i 29 -a 0 -x {0.0 1.0 29 ------- null}
h -t 0.130516442634267 -s 0 -d 1 -p poisson -e 500 -c 0 -i 29 -a 0 -x {0.0 1.0 -1 ------- null}
r -t 0.132516442634267 -s 0 -d 1 -p poisson -e 500 -c 0 -i 26 -a 0 -x {0.0 1.0 26 ------- null}
+ -t 0.133116579744444 -s 0 -d 1 -p poisson -e 500 -c 0 -i 54 -a 0 -x {0.0 1.0 54 ------- null}
+ -t 0.134294731911365 -s 0 -d 1 -p poisson -e 500 -c 0 -i 55 -a 0 -x {0.0 1.0 55 ------- null}
- -t 0.134516442634267 -s 0 -d 1 -p poisson -e 500 -c 0 -i 30 -a 0 -x {0.0 1.0 30 ------- null}
h -t 0.134516442634267 -s 0 -d 1 -p poisson -e 500 -c 0 -i 30 -a 0 -x {0.0 1.0 -1 ------- null}
+ -t 0.136002832493022 -s 0 -d 1 -p poisson -e 500 -c 0 -i 56 -a 0 -x {0.0 1.0 56 ------- null}
r -t 0.136516442634267 -s 0 -d 1 -p poisson -e 500 -c 0 -i 27 -a 0 -x {0.0 1.0 27 ------- null}
- -t 0.138516442634267 -s 0 -d 1 -p poisson -e 500 -c 0 -i 31 -a 0 -x {0.0 1.0 31 ------- null}
h -t 0.138516442634267 -s 0 -d 1 -p poisson -e 500 -c 0 -i 31 -a 0 -x {0.0 1.0 -1 ------- null}
r -t 0.140516442634267 -s 0 -d 1 -p poisson -e 500 -c 0 -i 28 -a 0 -x {0.0 1.0 28 ------- null}
- -t 0.142516442634267 -s 0 -d 1 -p poisson -e 500 -c 0 -i 32 -a 0 -x {0.0 1.0 32 ------- null}
h -t 0.142516442634267 -s 0 -d 1 -p poisson -e 500 -c 0 -i 32 -a 0 -x {0.0 1.0 -1 ------- null}
+ -t 0.143185795592133 -s 0 -d 1 -p poisson -e 500 -c 0 -i 57 -a 0 -x {0.0 1.0 57 ------- null}
r -t 0.144516442634267 -s 0 -d 1 -p poisson -e 500 -c 0 -i 29 -a 0 -x {0.0 1.0 29 ------- null}
+ -t 0.145419447914304 -s 0 -d 1 -p poisson -e 500 -c 0 -i 58 -a 0 -x {0.0 1.0 58 ------- null}
- -t 0.146516442634267 -s 0 -d 1 -p poisson -e 500 -c 0 -i 33 -a 0 -x {0.0 1.0 33 ------- null}
h -t 0.146516442634267 -s 0 -d 1 -p poisson -e 500 -c 0 -i 33 -a 0 -x {0.0 1.0 -1 ------- null}
r -t 0.148516442634267 -s 0 -d 1 -p poisson -e 500 -c 0 -i 30 -a 0 -x {0.0 1.0 30 ------- null}
+ -t 0.148781162649871 -s 0 -d 1 -p poisson -e 500 -c 0 -i 59 -a 0 -x {0.0 1.0 59 ------- null}
+ -t 0.14926533863226 -s 0 -d 1 -p poisson -e 500 -c 0 -i 60 -a 0 -x {0.0 1.0 60 ------- null}
+ -t 0.149374639237518 -s 0 -d 1 -p poisson -e 500 -c 0 -i 61 -a 0 -x {0.0 1.0 61 ------- null}
+ -t 0.14989037907934 -s 0 -d 1 -p poisson -e 500 -c 0 -i 62 -a 0 -x {0.0 1.0 62 ------- null}
- -t 0.150516442634267 -s 0 -d 1 -p poisson -e 500 -c 0 -i 34 -a 0 -x {0.0 1.0 34 ------- null}
h -t 0.150516442634267 -s 0 -d 1 -p poisson -e 500 -c 0 -i 34 -a 0 -x {0.0 1.0 -1 ------- null}
r -t 0.152516442634267 -s 0 -d 1 -p poisson -e 500 -c 0 -i 31 -a 0 -x {0.0 1.0 31 ------- null}
+ -t 0.153043023476919 -s 0 -d 1 -p poisson -e 500 -c 0 -i 63 -a 0 -x {0.0 1.0 63 ------- null}
+ -t 0.153770890893925 -s 0 -d 1 -p poisson -e 500 -c 0 -i 64 -a 0 -x {0.0 1.0 64 ------- null}
- -t 0.154516442634267 -s 0 -d 1 -p poisson -e 500 -c 0 -i 35 -a 0 -x {0.0 1.0 35 ------- null}
h -t 0.154516442634267 -s 0 -d 1 -p poisson -e 500 -c 0 -i 35 -a 0 -x {0.0 1.0 -1 ------- null}
r -t 0.156516442634267 -s 0 -d 1 -p poisson -e 500 -c 0 -i 32 -a 0 -x {0.0 1.0 32 ------- null}
+ -t 0.157214672937461 -s 0 -d 1 -p poisson -e 500 -c 0 -i 65 -a 0 -x {0.0 1.0 65 ------- null}
+ -t 0.157263244593218 -s 0 -d 1 -p poisson -e 500 -c 0 -i 66 -a 0 -x {0.0 1.0 66 ------- null}
- -t 0.158516442634267 -s 0 -d 1 -p poisson -e 500 -c 0 -i 36 -a 0 -x {0.0 1.0 36 ------- null}
h -t 0.158516442634267 -s 0 -d 1 -p poisson -e 500 -c 0 -i 36 -a 0 -x {0.0 1.0 -1 ------- null}
r -t 0.160516442634267 -s 0 -d 1 -p poisson -e 500 -c 0 -i 33 -a 0 -x {0.0 1.0 33 ------- null}
+ -t 0.162049207170997 -s 0 -d 1 -p poisson -e 500 -c 0 -i 67 -a 0 -x {0.0 1.0 67 ------- null}
- -t 0.162516442634267 -s 0 -d 1 -p poisson -e 500 -c 0 -i 37 -a 0 -x {0.0 1.0 37 ------- null}
h -t 0.162516442634267 -s 0 -d 1 -p poisson -e 500 -c 0 -i 37 -a 0 -x {0.0 1.0 -1 ------- null}
+ -t 0.163468891902624 -s 0 -d 1 -p poisson -e 500 -c 0 -i 68 -a 0 -x {0.0 1.0 68 ------- null}
r -t 0.164516442634267 -s 0 -d 1 -p poisson -e 500 -c 0 -i 34 -a 0 -x {0.0 1.0 34 ------- null}
- -t 0.166516442634267 -s 0 -d 1 -p poisson -e 500 -c 0 -i 38 -a 0 -x {0.0 1.0 38 ------- null}
h -t 0.166516442634267 -s 0 -d 1 -p poisson -e 500 -c 0 -i 38 -a 0 -x {0.0 1.0 -1 ------- null}
r -t 0.168516442634267 -s 0 -d 1 -p poisson -e 500 -c 0 -i 35 -a 0 -x {0.0 1.0 35 ------- null}
+ -t 0.169455027360351 -s 0 -d 1 -p poisson -e 500 -c 0 -i 69 -a 0 -x {0.0 1.0 69 ------- null}
+ -t 0.16974483503237 -s 0 -d 1 -p poisson -e 500 -c 0 -i 70 -a 0 -x {0.0 1.0 70 ------- null}
- -t 0.170516442634267 -s 0 -d 1 -p poisson -e 500 -c 0 -i 39 -a 0 -x {0.0 1.0 39 ------- null}
h -t 0.170516442634267 -s 0 -d 1 -p poisson -e 500 -c 0 -i 39 -a 0 -x {0.0 1.0 -1 ------- null}
+ -t 0.171003683446224 -s 0 -d 1 -p poisson -e 500 -c 0 -i 71 -a 0 -x {0.0 1.0 71 ------- null}
+ -t 0.171619205059133 -s 0 -d 1 -p poisson -e 500 -c 0 -i 72 -a 0 -x {0.0 1.0 72 ------- null}
r -t 0.172516442634267 -s 0 -d 1 -p poisson -e 500 -c 0 -i 36 -a 0 -x {0.0 1.0 36 ------- null}
+ -t 0.173348404850857 -s 0 -d 1 -p poisson -e 500 -c 0 -i 73 -a 0 -x {0.0 1.0 73 ------- null}
- -t 0.174516442634267 -s 0 -d 1 -p poisson -e 500 -c 0 -i 40 -a 0 -x {0.0 1.0 40 ------- null}
h -t 0.174516442634267 -s 0 -d 1 -p poisson -e 500 -c 0 -i 40 -a 0 -x {0.0 1.0 -1 ------- null}
r -t 0.176516442634267 -s 0 -d 1 -p poisson -e 500 -c 0 -i 37 -a 0 -x {0.0 1.0 37 ------- null}
+ -t 0.178204698178618 -s 0 -d 1 -p poisson -e 500 -c 0 -i 74 -a 0 -x {0.0 1.0 74 ------- null}
- -t 0.178516442634267 -s 0 -d 1 -p poisson -e 500 -c 0 -i 41 -a 0 -x {0.0 1.0 41 ------- null}
h -t 0.178516442634267 -s 0 -d 1 -p poisson -e 500 -c 0 -i 41 -a 0 -x {0.0 1.0 -1 ------- null}
+ -t 0.178615305065592 -s 0 -d 1 -p poisson -e 500 -c 0 -i 75 -a 0 -x {0.0 1.0 75 ------- null}
+ -t 0.178819707991568 -s 0 -d 1 -p poisson -e 500 -c 0 -i 76 -a 0 -x {0.0 1.0 76 ------- null}
+ -t 0.179454501699103 -s 0 -d 1 -p poisson -e 500 -c 0 -i 77 -a 0 -x {0.0 1.0 77 ------- null}
+ -t 0.179722373095964 -s 0 -d 1 -p poisson -e 500 -c 0 -i 78 -a 0 -x {0.0 1.0 78 ------- null}
r -t 0.180516442634267 -s 0 -d 1 -p poisson -e 500 -c 0 -i 38 -a 0 -x {0.0 1.0 38 ------- null}
+ -t 0.180790860220404 -s 0 -d 1 -p poisson -e 500 -c 0 -i 79 -a 0 -x {0.0 1.0 79 ------- null}
+ -t 0.181404343932385 -s 0 -d 1 -p poisson -e 500 -c 0 -i 80 -a 0 -x {0.0 1.0 80 ------- null}
+ -t 0.181845607691741 -s 0 -d 1 -p poisson -e 500 -c 0 -i 81 -a 0 -x {0.0 1.0 81 ------- null}
- -t 0.182516442634267 -s 0 -d 1 -p poisson -e 500 -c 0 -i 42 -a 0 -x {0.0 1.0 42 ------- null}
h -t 0.182516442634267 -s 0 -d 1 -p poisson -e 500 -c 0 -i 42 -a 0 -x {0.0 1.0 -1 ------- null}
+ -t 0.18391092771199 -s 0 -d 1 -p poisson -e 500 -c 0 -i 82 -a 0 -x {0.0 1.0 82 ------- null}
r -t 0.184516442634267 -s 0 -d 1 -p poisson -e 500 -c 0 -i 39 -a 0 -x {0.0 1.0 39 ------- null}
+ -t 0.185076256411415 -s 0 -d 1 -p poisson -e 500 -c 0 -i 83 -a 0 -x {0.0 1.0 83 ------- null}
+ -t 0.185483962195622 -s 0 -d 1 -p poisson -e 500 -c 0 -i 84 -a 0 -x {0.0 1.0 84 ------- null}
+ -t 0.185971228654485 -s 0 -d 1 -p poisson -e 500 -c 0 -i 85 -a 0 -x {0.0 1.0 85 ------- null}
- -t 0.186516442634267 -s 0 -d 1 -p poisson -e 500 -c 0 -i 43 -a 0 -x {0.0 1.0 43 ------- null}
h -t 0.186516442634267 -s 0 -d 1 -p poisson -e 500 -c 0 -i 43 -a 0 -x {0.0 1.0 -1 ------- null}
+ -t 0.186791603397369 -s 0 -d 1 -p poisson -e 500 -c 0 -i 86 -a 0 -x {0.0 1.0 86 ------- null}
r -t 0.188516442634267 -s 0 -d 1 -p poisson -e 500 -c 0 -i 40 -a 0 -x {0.0 1.0 40 ------- null}
- -t 0.190516442634267 -s 0 -d 1 -p poisson -e 500 -c 0 -i 44 -a 0 -x {0.0 1.0 44 ------- null}
h -t 0.190516442634267 -s 0 -d 1 -p poisson -e 500 -c 0 -i 44 -a 0 -x {0.0 1.0 -1 ------- null}
+ -t 0.190585997625571 -s 0 -d 1 -p poisson -e 500 -c 0 -i 87 -a 0 -x {0.0 1.0 87 ------- null}
+ -t 0.192386943032815 -s 0 -d 1 -p poisson -e 500 -c 0 -i 88 -a 0 -x {0.0 1.0 88 ------- null}
r -t 0.192516442634267 -s 0 -d 1 -p poisson -e 500 -c 0 -i 41 -a 0 -x {0.0 1.0 41 ------- null}
+ -t 0.193596765075777 -s 0 -d 1 -p poisson -e 500 -c 0 -i 89 -a 0 -x {0.0 1.0 89 ------- null}
- -t 0.194516442634267 -s 0 -d 1 -p poisson -e 500 -c 0 -i 45 -a 0 -x {0.0 1.0 45 ------- null}
h -t 0.194516442634267 -s 0 -d 1 -p poisson -e 500 -c 0 -i 45 -a 0 -x {0.0 1.0 -1 ------- null}
+ -t 0.195565883630429 -s 0 -d 1 -p poisson -e 500 -c 0 -i 90 -a 0 -x {0.0 1.0 90 ------- null}
r -t 0.196516442634267 -s 0 -d 1 -p poisson -e 500 -c 0 -i 42 -a 0 -x {0.0 1.0 42 ------- null}
- -t 0.198516442634267 -s 0 -d 1 -p poisson -e 500 -c 0 -i 46 -a 0 -x {0.0 1.0 46 ------- null}
h -t 0.198516442634267 -s 0 -d 1 -p poisson -e 500 -c 0 -i 46 -a 0 -x {0.0 1.0 -1 ------- null}
r -t 0.200516442634267 -s 0 -d 1 -p poisson -e 500 -c 0 -i 43 -a 0 -x {0.0 1.0 43 ------- null}
- -t 0.202516442634267 -s 0 -d 1 -p poisson -e 500 -c 0 -i 47 -a 0 -x {0.0 1.0 47 ------- null}
h -t 0.202516442634267 -s 0 -d 1 -p poisson -e 500 -c 0 -i 47 -a 0 -x {0.0 1.0 -1 ------- null}
r -t 0.204516442634267 -s 0 -d 1 -p poisson -e 500 -c 0 -i 44 -a 0 -x {0.0 1.0 44 ------- null}
- -t 0.206516442634267 -s 0 -d 1 -p poisson -e 500 -c 0 -i 48 -a 0 -x {0.0 1.0 48 ------- null}
h -t 0.206516442634267 -s 0 -d 1 -p poisson -e 500 -c 0 -i 48 -a 0 -x {0.0 1.0 -1 ------- null}
r -t 0.208516442634267 -s 0 -d 1 -p poisson -e 500 -c 0 -i 45 -a 0 -x {0.0 1.0 45 ------- null}
- -t 0.210516442634267 -s 0 -d 1 -p poisson -e 500 -c 0 -i 49 -a 0 -x {0.0 1.0 49 ------- null}
h -t 0.210516442634267 -s 0 -d 1 -p poisson -e 500 -c 0 -i 49 -a 0 -x {0.0 1.0 -1 ------- null}
r -t 0.212516442634267 -s 0 -d 1 -p poisson -e 500 -c 0 -i 46 -a 0 -x {0.0 1.0 46 ------- null}
+ -t 0.212872609016805 -s 0 -d 1 -p poisson -e 500 -c 0 -i 91 -a 0 -x {0.0 1.0 91 ------- null}
- -t 0.214516442634267 -s 0 -d 1 -p poisson -e 500 -c 0 -i 50 -a 0 -x {0.0 1.0 50 ------- null}
h -t 0.214516442634267 -s 0 -d 1 -p poisson -e 500 -c 0 -i 50 -a 0 -x {0.0 1.0 -1 ------- null}
r -t 0.216516442634267 -s 0 -d 1 -p poisson -e 500 -c 0 -i 47 -a 0 -x {0.0 1.0 47 ------- null}
+ -t 0.217840106285078 -s 0 -d 1 -p poisson -e 500 -c 0 -i 92 -a 0 -x {0.0 1.0 92 ------- null}
- -t 0.218516442634267 -s 0 -d 1 -p poisson -e 500 -c 0 -i 51 -a 0 -x {0.0 1.0 51 ------- null}
h -t 0.218516442634267 -s 0 -d 1 -p poisson -e 500 -c 0 -i 51 -a 0 -x {0.0 1.0 -1 ------- null}
+ -t 0.220044055590625 -s 0 -d 1 -p poisson -e 500 -c 0 -i 93 -a 0 -x {0.0 1.0 93 ------- null}
r -t 0.220516442634267 -s 0 -d 1 -p poisson -e 500 -c 0 -i 48 -a 0 -x {0.0 1.0 48 ------- null}
+ -t 0.22076975839017 -s 0 -d 1 -p poisson -e 500 -c 0 -i 94 -a 0 -x {0.0 1.0 94 ------- null}
+ -t 0.220954122302321 -s 0 -d 1 -p poisson -e 500 -c 0 -i 95 -a 0 -x {0.0 1.0 95 ------- null}
- -t 0.222516442634267 -s 0 -d 1 -p poisson -e 500 -c 0 -i 52 -a 0 -x {0.0 1.0 52 ------- null}
h -t 0.222516442634267 -s 0 -d 1 -p poisson -e 500 -c 0 -i 52 -a 0 -x {0.0 1.0 -1 ------- null}
r -t 0.224516442634267 -s 0 -d 1 -p poisson -e 500 -c 0 -i 49 -a 0 -x {0.0 1.0 49 ------- null}
- -t 0.226516442634267 -s 0 -d 1 -p poisson -e 500 -c 0 -i 53 -a 0 -x {0.0 1.0 53 ------- null}
h -t 0.226516442634267 -s 0 -d 1 -p poisson -e 500 -c 0 -i 53 -a 0 -x {0.0 1.0 -1 ------- null}
+ -t 0.22778924202055 -s 0 -d 1 -p poisson -e 500 -c 0 -i 96 -a 0 -x {0.0 1.0 96 ------- null}
r -t 0.228516442634267 -s 0 -d 1 -p poisson -e 500 -c 0 -i 50 -a 0 -x {0.0 1.0 50 ------- null}
+ -t 0.229803603125898 -s 0 -d 1 -p poisson -e 500 -c 0 -i 97 -a 0 -x {0.0 1.0 97 ------- null}
- -t 0.230516442634267 -s 0 -d 1 -p poisson -e 500 -c 0 -i 54 -a 0 -x {0.0 1.0 54 ------- null}
h -t 0.230516442634267 -s 0 -d 1 -p poisson -e 500 -c 0 -i 54 -a 0 -x {0.0 1.0 -1 ------- null}
+ -t 0.232178562440515 -s 0 -d 1 -p poisson -e 500 -c 0 -i 98 -a 0 -x {0.0 1.0 98 ------- null}
r -t 0.232516442634267 -s 0 -d 1 -p poisson -e 500 -c 0 -i 51 -a 0 -x {0.0 1.0 51 ------- null}
- -t 0.234516442634267 -s 0 -d 1 -p poisson -e 500 -c 0 -i 55 -a 0 -x {0.0 1.0 55 ------- null}
h -t 0.234516442634267 -s 0 -d 1 -p poisson -e 500 -c 0 -i 55 -a 0 -x {0.0 1.0 -1 ------- null}
r -t 0.236516442634267 -s 0 -d 1 -p poisson -e 500 -c 0 -i 52 -a 0 -x {0.0 1.0 52 ------- null}
- -t 0.238516442634267 -s 0 -d 1 -p poisson -e 500 -c 0 -i 56 -a 0 -x {0.0 1.0 56 ------- null}
h -t 0.238516442634267 -s 0 -d 1 -p poisson -e 500 -c 0 -i 56 -a 0 -x {0.0 1.0 -1 ------- null}
r -t 0.240516442634267 -s 0 -d 1 -p poisson -e 500 -c 0 -i 53 -a 0 -x {0.0 1.0 53 ------- null}
- -t 0.242516442634267 -s 0 -d 1 -p poisson -e 500 -c 0 -i 57 -a 0 -x {0.0 1.0 57 ------- null}
h -t 0.242516442634267 -s 0 -d 1 -p poisson -e 500 -c 0 -i 57 -a 0 -x {0.0 1.0 -1 ------- null}
+ -t 0.243575992006863 -s 0 -d 1 -p poisson -e 500 -c 0 -i 99 -a 0 -x {0.0 1.0 99 ------- null}
r -t 0.244516442634267 -s 0 -d 1 -p poisson -e 500 -c 0 -i 54 -a 0 -x {0.0 1.0 54 ------- null}
+ -t 0.245844047273548 -s 0 -d 1 -p poisson -e 500 -c 0 -i 100 -a 0 -x {0.0 1.0 100 ------- null}
+ -t 0.246096858152018 -s 0 -d 1 -p poisson -e 500 -c 0 -i 101 -a 0 -x {0.0 1.0 101 ------- null}
+ -t 0.246352534821289 -s 0 -d 1 -p poisson -e 500 -c 0 -i 102 -a 0 -x {0.0 1.0 102 ------- null}
- -t 0.246516442634267 -s 0 -d 1 -p poisson -e 500 -c 0 -i 58 -a 0 -x {0.0 1.0 58 ------- null}
h -t 0.246516442634267 -s 0 -d 1 -p poisson -e 500 -c 0 -i 58 -a 0 -x {0.0 1.0 -1 ------- null}
+ -t 0.246784295217066 -s 0 -d 1 -p poisson -e 500 -c 0 -i 103 -a 0 -x {0.0 1.0 103 ------- null}
r -t 0.248516442634267 -s 0 -d 1 -p poisson -e 500 -c 0 -i 55 -a 0 -x {0.0 1.0 55 ------- null}
+ -t 0.250313918752737 -s 0 -d 1 -p poisson -e 500 -c 0 -i 104 -a 0 -x {0.0 1.0 104 ------- null}
- -t 0.250516442634267 -s 0 -d 1 -p poisson -e 500 -c 0 -i 59 -a 0 -x {0.0 1.0 59 ------- null}
h -t 0.250516442634267 -s 0 -d 1 -p poisson -e 500 -c 0 -i 59 -a 0 -x {0.0 1.0 -1 ------- null}
r -t 0.252516442634267 -s 0 -d 1 -p poisson -e 500 -c 0 -i 56 -a 0 -x {0.0 1.0 56 ------- null}
- -t 0.254516442634267 -s 0 -d 1 -p poisson -e 500 -c 0 -i 60 -a 0 -x {0.0 1.0 60 ------- null}
h -t 0.254516442634267 -s 0 -d 1 -p poisson -e 500 -c 0 -i 60 -a 0 -x {0.0 1.0 -1 ------- null}
r -t 0.256516442634267 -s 0 -d 1 -p poisson -e 500 -c 0 -i 57 -a 0 -x {0.0 1.0 57 ------- null}
+ -t 0.257201621594944 -s 0 -d 1 -p poisson -e 500 -c 0 -i 105 -a 0 -x {0.0 1.0 105 ------- null}
+ -t 0.257763072998912 -s 0 -d 1 -p poisson -e 500 -c 0 -i 106 -a 0 -x {0.0 1.0 106 ------- null}
- -t 0.258516442634267 -s 0 -d 1 -p poisson -e 500 -c 0 -i 61 -a 0 -x {0.0 1.0 61 ------- null}
h -t 0.258516442634267 -s 0 -d 1 -p poisson -e 500 -c 0 -i 61 -a 0 -x {0.0 1.0 -1 ------- null}
+ -t 0.258734179604894 -s 0 -d 1 -p poisson -e 500 -c 0 -i 107 -a 0 -x {0.0 1.0 107 ------- null}
+ -t 0.259206565327504 -s 0 -d 1 -p poisson -e 500 -c 0 -i 108 -a 0 -x {0.0 1.0 108 ------- null}
+ -t 0.260511547710424 -s 0 -d 1 -p poisson -e 500 -c 0 -i 109 -a 0 -x {0.0 1.0 109 ------- null}
r -t 0.260516442634267 -s 0 -d 1 -p poisson -e 500 -c 0 -i 58 -a 0 -x {0.0 1.0 58 ------- null}
+ -t 0.262102964490292 -s 0 -d 1 -p poisson -e 500 -c 0 -i 110 -a 0 -x {0.0 1.0 110 ------- null}
- -t 0.262516442634267 -s 0 -d 1 -p poisson -e 500 -c 0 -i 62 -a 0 -x {0.0 1.0 62 ------- null}
h -t 0.262516442634267 -s 0 -d 1 -p poisson -e 500 -c 0 -i 62 -a 0 -x {0.0 1.0 -1 ------- null}
r -t 0.264516442634267 -s 0 -d 1 -p poisson -e 500 -c 0 -i 59 -a 0 -x {0.0 1.0 59 ------- null}
+ -t 0.265247103013054 -s 0 -d 1 -p poisson -e 500 -c 0 -i 111 -a 0 -x {0.0 1.0 111 ------- null}
- -t 0.266516442634267 -s 0 -d 1 -p poisson -e 500 -c 0 -i 63 -a 0 -x {0.0 1.0 63 ------- null}
h -t 0.266516442634267 -s 0 -d 1 -p poisson -e 500 -c 0 -i 63 -a 0 -x {0.0 1.0 -1 ------- null}
r -t 0.268516442634267 -s 0 -d 1 -p poisson -e 500 -c 0 -i 60 -a 0 -x {0.0 1.0 60 ------- null}
- -t 0.270516442634267 -s 0 -d 1 -p poisson -e 500 -c 0 -i 64 -a 0 -x {0.0 1.0 64 ------- null}
h -t 0.270516442634267 -s 0 -d 1 -p poisson -e 500 -c 0 -i 64 -a 0 -x {0.0 1.0 -1 ------- null}
r -t 0.272516442634267 -s 0 -d 1 -p poisson -e 500 -c 0 -i 61 -a 0 -x {0.0 1.0 61 ------- null}
+ -t 0.273517789024403 -s 0 -d 1 -p poisson -e 500 -c 0 -i 112 -a 0 -x {0.0 1.0 112 ------- null}
- -t 0.274516442634267 -s 0 -d 1 -p poisson -e 500 -c 0 -i 65 -a 0 -x {0.0 1.0 65 ------- null}
h -t 0.274516442634267 -s 0 -d 1 -p poisson -e 500 -c 0 -i 65 -a 0 -x {0.0 1.0 -1 ------- null}
+ -t 0.275160139217649 -s 0 -d 1 -p poisson -e 500 -c 0 -i 113 -a 0 -x {0.0 1.0 113 ------- null}
r -t 0.276516442634267 -s 0 -d 1 -p poisson -e 500 -c 0 -i 62 -a 0 -x {0.0 1.0 62 ------- null}