+ 0 0 1 poisson 500 ------- 0 0.0 1.0 0 0
- 0 0 1 poisson 500 ------- 0 0.0 1.0 0 0
r 0.014 0 1 poisson 500 ------- 0 0.0 1.0 0 0
+ 0.319512 0 1 poisson 500 ------- 0 0.0 1.0 1 1
- 0.319512 0 1 poisson 500 ------- 0 0.0 1.0 1 1
r 0.333512 0 1 poisson 500 ------- 0 0.0 1.0 1 1
+ 0.343 0 1 poisson 500 ------- 0 0.0 1.0 2 2
- 0.343 0 1 poisson 500 ------- 0 0.0 1.0 2 2
r 0.357 0 1 poisson 500 ------- 0 0.0 1.0 2 2
+ 0.513168 0 1 poisson 500 ------- 0 0.0 1.0 3 3
- 0.513168 0 1 poisson 500 ------- 0 0.0 1.0 3 3
r 0.527168 0 1 poisson 500 ------- 0 0.0 1.0 3 3
+ 0.610329 0 1 poisson 500 ------- 0 0.0 1.0 4 4
- 0.610329 0 1 poisson 500 ------- 0 0.0 1.0 4 4
r 0.624329 0 1 poisson 500 ------- 0 0.0 1.0 4 4
+ 0.643062 0 1 poisson 500 ------- 0 0.0 1.0 5 5
- 0.643062 0 1 poisson 500 ------- 0 0.0 1.0 5 5
+ 0.65203 0 1 poisson 500 ------- 0 0.0 1.0 6 6
- 0.65203 0 1 poisson 500 ------- 0 0.0 1.0 6 6
r 0.657062 0 1 poisson 500 ------- 0 0.0 1.0 5 5
r 0.66603 0 1 poisson 500 ------- 0 0.0 1.0 6 6
+ 0.698497 0 1 poisson 500 ------- 0 0.0 1.0 7 7
- 0.698497 0 1 poisson 500 ------- 0 0.0 1.0 7 7
+ 0.706607 0 1 poisson 500 ------- 0 0.0 1.0 8 8
- 0.706607 0 1 poisson 500 ------- 0 0.0 1.0 8 8
r 0.712497 0 1 poisson 500 ------- 0 0.0 1.0 7 7
r 0.720607 0 1 poisson 500 ------- 0 0.0 1.0 8 8
+ 0.764601 0 1 poisson 500 ------- 0 0.0 1.0 9 9
- 0.764601 0 1 poisson 500 ------- 0 0.0 1.0 9 9
r 0.778601 0 1 poisson 500 ------- 0 0.0 1.0 9 9
+ 0.782524 0 1 poisson 500 ------- 0 0.0 1.0 10 10
- 0.782524 0 1 poisson 500 ------- 0 0.0 1.0 10 10
r 0.796524 0 1 poisson 500 ------- 0 0.0 1.0 10 10
+ 0.82949 0 1 poisson 500 ------- 0 0.0 1.0 11 11
- 0.82949 0 1 poisson 500 ------- 0 0.0 1.0 11 11
+ 0.83664 0 1 poisson 500 ------- 0 0.0 1.0 12 12
- 0.83664 0 1 poisson 500 ------- 0 0.0 1.0 12 12
r 0.84349 0 1 poisson 500 ------- 0 0.0 1.0 11 11
r 0.85064 0 1 poisson 500 ------- 0 0.0 1.0 12 12
+ 0.90892 0 1 poisson 500 ------- 0 0.0 1.0 13 13
- 0.90892 0 1 poisson 500 ------- 0 0.0 1.0 13 13
r 0.92292 0 1 poisson 500 ------- 0 0.0 1.0 13 13
+ 1.034974 0 1 poisson 500 ------- 0 0.0 1.0 14 14
- 1.034974 0 1 poisson 500 ------- 0 0.0 1.0 14 14
r 1.048974 0 1 poisson 500 ------- 0 0.0 1.0 14 14
+ 1.052821 0 1 poisson 500 ------- 0 0.0 1.0 15 15
- 1.052821 0 1 poisson 500 ------- 0 0.0 1.0 15 15
r 1.066821 0 1 poisson 500 ------- 0 0.0 1.0 15 15
+ 1.139751 0 1 poisson 500 ------- 0 0.0 1.0 16 16
- 1.139751 0 1 poisson 500 ------- 0 0.0 1.0 16 16
+ 1.145796 0 1 poisson 500 ------- 0 0.0 1.0 17 17
- 1.145796 0 1 poisson 500 ------- 0 0.0 1.0 17 17
r 1.153751 0 1 poisson 500 ------- 0 0.0 1.0 16 16
r 1.159796 0 1 poisson 500 ------- 0 0.0 1.0 17 17
+ 1.180149 0 1 poisson 500 ------- 0 0.0 1.0 18 18
- 1.180149 0 1 poisson 500 ------- 0 0.0 1.0 18 18
r 1.194149 0 1 poisson 500 ------- 0 0.0 1.0 18 18
+ 1.249913 0 1 poisson 500 ------- 0 0.0 1.0 19 19
- 1.249913 0 1 poisson 500 ------- 0 0.0 1.0 19 19
r 1.263913 0 1 poisson 500 ------- 0 0.0 1.0 19 19
+ 1.344432 0 1 poisson 500 ------- 0 0.0 1.0 20 20
- 1.344432 0 1 poisson 500 ------- 0 0.0 1.0 20 20
+ 1.353008 0 1 poisson 500 ------- 0 0.0 1.0 21 21
- 1.353008 0 1 poisson 500 ------- 0 0.0 1.0 21 21
r 1.358432 0 1 poisson 500 ------- 0 0.0 1.0 20 20
r 1.367008 0 1 poisson 500 ------- 0 0.0 1.0 21 21
+ 1.395145 0 1 poisson 500 ------- 0 0.0 1.0 22 22
- 1.395145 0 1 poisson 500 ------- 0 0.0 1.0 22 22
r 1.409145 0 1 poisson 500 ------- 0 0.0 1.0 22 22
+ 1.449323 0 1 poisson 500 ------- 0 0.0 1.0 23 23
- 1.449323 0 1 poisson 500 ------- 0 0.0 1.0 23 23
r 1.463323 0 1 poisson 500 ------- 0 0.0 1.0 23 23
+ 1.485116 0 1 poisson 500 ------- 0 0.0 1.0 24 24
- 1.485116 0 1 poisson 500 ------- 0 0.0 1.0 24 24
r 1.499116 0 1 poisson 500 ------- 0 0.0 1.0 24 24
+ 1.511377 0 1 poisson 500 ------- 0 0.0 1.0 25 25
- 1.511377 0 1 poisson 500 ------- 0 0.0 1.0 25 25
r 1.525377 0 1 poisson 500 ------- 0 0.0 1.0 25 25
+ 1.54191 0 1 poisson 500 ------- 0 0.0 1.0 26 26
- 1.54191 0 1 poisson 500 ------- 0 0.0 1.0 26 26
r 1.55591 0 1 poisson 500 ------- 0 0.0 1.0 26 26
+ 1.556619 0 1 poisson 500 ------- 0 0.0 1.0 27 27
- 1.556619 0 1 poisson 500 ------- 0 0.0 1.0 27 27
+ 1.562555 0 1 poisson 500 ------- 0 0.0 1.0 28 28
- 1.562555 0 1 poisson 500 ------- 0 0.0 1.0 28 28
+ 1.569538 0 1 poisson 500 ------- 0 0.0 1.0 29 29
- 1.569538 0 1 poisson 500 ------- 0 0.0 1.0 29 29
r 1.570619 0 1 poisson 500 ------- 0 0.0 1.0 27 27
r 1.576555 0 1 poisson 500 ------- 0 0.0 1.0 28 28
r 1.583538 0 1 poisson 500 ------- 0 0.0 1.0 29 29
+ 1.630623 0 1 poisson 500 ------- 0 0.0 1.0 30 30
- 1.630623 0 1 poisson 500 ------- 0 0.0 1.0 30 30
r 1.644623 0 1 poisson 500 ------- 0 0.0 1.0 30 30
+ 1.687504 0 1 poisson 500 ------- 0 0.0 1.0 31 31
- 1.687504 0 1 poisson 500 ------- 0 0.0 1.0 31 31
+ 1.693952 0 1 poisson 500 ------- 0 0.0 1.0 32 32
- 1.693952 0 1 poisson 500 ------- 0 0.0 1.0 32 32
r 1.701504 0 1 poisson 500 ------- 0 0.0 1.0 31 31
r 1.707952 0 1 poisson 500 ------- 0 0.0 1.0 32 32
+ 1.709535 0 1 poisson 500 ------- 0 0.0 1.0 33 33
- 1.709535 0 1 poisson 500 ------- 0 0.0 1.0 33 33
+ 1.720395 0 1 poisson 500 ------- 0 0.0 1.0 34 34
- 1.720395 0 1 poisson 500 ------- 0 0.0 1.0 34 34
r 1.723535 0 1 poisson 500 ------- 0 0.0 1.0 33 33
+ 1.724391 0 1 poisson 500 ------- 0 0.0 1.0 35 35
- 1.724395 0 1 poisson 500 ------- 0 0.0 1.0 35 35
r 1.734395 0 1 poisson 500 ------- 0 0.0 1.0 34 34
r 1.738395 0 1 poisson 500 ------- 0 0.0 1.0 35 35
+ 1.760494 0 1 poisson 500 ------- 0 0.0 1.0 36 36
- 1.760494 0 1 poisson 500 ------- 0 0.0 1.0 36 36
r 1.774494 0 1 poisson 500 ------- 0 0.0 1.0 36 36
+ 1.849078 0 1 poisson 500 ------- 0 0.0 1.0 37 37
- 1.849078 0 1 poisson 500 ------- 0 0.0 1.0 37 37
r 1.863078 0 1 poisson 500 ------- 0 0.0 1.0 37 37
+ 1.885311 0 1 poisson 500 ------- 0 0.0 1.0 38 38
- 1.885311 0 1 poisson 500 ------- 0 0.0 1.0 38 38
r 1.899311 0 1 poisson 500 ------- 0 0.0 1.0 38 38
+ 1.952299 0 1 poisson 500 ------- 0 0.0 1.0 39 39
- 1.952299 0 1 poisson 500 ------- 0 0.0 1.0 39 39
+ 1.957075 0 1 poisson 500 ------- 0 0.0 1.0 40 40
- 1.957075 0 1 poisson 500 ------- 0 0.0 1.0 40 40
+ 1.959284 0 1 poisson 500 ------- 0 0.0 1.0 41 41
- 1.961075 0 1 poisson 500 ------- 0 0.0 1.0 41 41
+ 1.963885 0 1 poisson 500 ------- 0 0.0 1.0 42 42
- 1.965075 0 1 poisson 500 ------- 0 0.0 1.0 42 42
r 1.966299 0 1 poisson 500 ------- 0 0.0 1.0 39 39
r 1.971075 0 1 poisson 500 ------- 0 0.0 1.0 40 40
r 1.975075 0 1 poisson 500 ------- 0 0.0 1.0 41 41
r 1.979075 0 1 poisson 500 ------- 0 0.0 1.0 42 42
+ 2.051444 0 1 poisson 500 ------- 0 0.0 1.0 43 43
- 2.051444 0 1 poisson 500 ------- 0 0.0 1.0 43 43
r 2.065444 0 1 poisson 500 ------- 0 0.0 1.0 43 43
+ 2.16506 0 1 poisson 500 ------- 0 0.0 1.0 44 44
- 2.16506 0 1 poisson 500 ------- 0 0.0 1.0 44 44
r 2.17906 0 1 poisson 500 ------- 0 0.0 1.0 44 44
+ 2.346157 0 1 poisson 500 ------- 0 0.0 1.0 45 45
- 2.346157 0 1 poisson 500 ------- 0 0.0 1.0 45 45
r 2.360157 0 1 poisson 500 ------- 0 0.0 1.0 45 45
+ 2.366923 0 1 poisson 500 ------- 0 0.0 1.0 46 46
- 2.366923 0 1 poisson 500 ------- 0 0.0 1.0 46 46
r 2.380923 0 1 poisson 500 ------- 0 0.0 1.0 46 46
+ 2.410589 0 1 poisson 500 ------- 0 0.0 1.0 47 47
- 2.410589 0 1 poisson 500 ------- 0 0.0 1.0 47 47
r 2.424589 0 1 poisson 500 ------- 0 0.0 1.0 47 47
+ 2.494378 0 1 poisson 500 ------- 0 0.0 1.0 48 48
- 2.494378 0 1 poisson 500 ------- 0 0.0 1.0 48 48
r 2.508378 0 1 poisson 500 ------- 0 0.0 1.0 48 48
+ 2.51048 0 1 poisson 500 ------- 0 0.0 1.0 49 49
- 2.51048 0 1 poisson 500 ------- 0 0.0 1.0 49 49
r 2.52448 0 1 poisson 500 ------- 0 0.0 1.0 49 49
+ 2.564828 0 1 poisson 500 ------- 0 0.0 1.0 50 50
- 2.564828 0 1 poisson 500 ------- 0 0.0 1.0 50 50
r 2.578828 0 1 poisson 500 ------- 0 0.0 1.0 50 50
+ 2.579171 0 1 poisson 500 ------- 0 0.0 1.0 51 51
- 2.579171 0 1 poisson 500 ------- 0 0.0 1.0 51 51
r 2.593171 0 1 poisson 500 ------- 0 0.0 1.0 51 51
+ 2.603463 0 1 poisson 500 ------- 0 0.0 1.0 52 52
- 2.603463 0 1 poisson 500 ------- 0 0.0 1.0 52 52
+ 2.608728 0 1 poisson 500 ------- 0 0.0 1.0 53 53
- 2.608728 0 1 poisson 500 ------- 0 0.0 1.0 53 53
r 2.617463 0 1 poisson 500 ------- 0 0.0 1.0 52 52
r 2.622728 0 1 poisson 500 ------- 0 0.0 1.0 53 53
+ 2.662332 0 1 poisson 500 ------- 0 0.0 1.0 54 54
- 2.662332 0 1 poisson 500 ------- 0 0.0 1.0 54 54
r 2.676332 0 1 poisson 500 ------- 0 0.0 1.0 54 54
+ 2.685895 0 1 poisson 500 ------- 0 0.0 1.0 55 55
- 2.685895 0 1 poisson 500 ------- 0 0.0 1.0 55 55
r 2.699895 0 1 poisson 500 ------- 0 0.0 1.0 55 55
+ 2.720057 0 1 poisson 500 ------- 0 0.0 1.0 56 56
- 2.720057 0 1 poisson 500 ------- 0 0.0 1.0 56 56
r 2.734057 0 1 poisson 500 ------- 0 0.0 1.0 56 56
+ 2.863716 0 1 poisson 500 ------- 0 0.0 1.0 57 57
- 2.863716 0 1 poisson 500 ------- 0 0.0 1.0 57 57
r 2.877716 0 1 poisson 500 ------- 0 0.0 1.0 57 57
+ 2.908389 0 1 poisson 500 ------- 0 0.0 1.0 58 58
- 2.908389 0 1 poisson 500 ------- 0 0.0 1.0 58 58
r 2.922389 0 1 poisson 500 ------- 0 0.0 1.0 58 58
+ 2.975623 0 1 poisson 500 ------- 0 0.0 1.0 59 59
- 2.975623 0 1 poisson 500 ------- 0 0.0 1.0 59 59
+ 2.985307 0 1 poisson 500 ------- 0 0.0 1.0 60 60
- 2.985307 0 1 poisson 500 ------- 0 0.0 1.0 60 60
+ 2.987493 0 1 poisson 500 ------- 0 0.0 1.0 61 61
- 2.989307 0 1 poisson 500 ------- 0 0.0 1.0 61 61
r 2.989623 0 1 poisson 500 ------- 0 0.0 1.0 59 59
+ 2.997808 0 1 poisson 500 ------- 0 0.0 1.0 62 62
- 2.997808 0 1 poisson 500 ------- 0 0.0 1.0 62 62
r 2.999307 0 1 poisson 500 ------- 0 0.0 1.0 60 60
r 3.003307 0 1 poisson 500 ------- 0 0.0 1.0 61 61
r 3.011808 0 1 poisson 500 ------- 0 0.0 1.0 62 62
+ 3.06086 0 1 poisson 500 ------- 0 0.0 1.0 63 63
- 3.06086 0 1 poisson 500 ------- 0 0.0 1.0 63 63
r 3.07486 0 1 poisson 500 ------- 0 0.0 1.0 63 63
+ 3.075418 0 1 poisson 500 ------- 0 0.0 1.0 64 64
- 3.075418 0 1 poisson 500 ------- 0 0.0 1.0 64 64
r 3.089418 0 1 poisson 500 ------- 0 0.0 1.0 64 64
+ 3.144293 0 1 poisson 500 ------- 0 0.0 1.0 65 65
- 3.144293 0 1 poisson 500 ------- 0 0.0 1.0 65 65
+ 3.145265 0 1 poisson 500 ------- 0 0.0 1.0 66 66
- 3.148293 0 1 poisson 500 ------- 0 0.0 1.0 66 66
r 3.158293 0 1 poisson 500 ------- 0 0.0 1.0 65 65
r 3.162293 0 1 poisson 500 ------- 0 0.0 1.0 66 66
+ 3.240984 0 1 poisson 500 ------- 0 0.0 1.0 67 67
- 3.240984 0 1 poisson 500 ------- 0 0.0 1.0 67 67
r 3.254984 0 1 poisson 500 ------- 0 0.0 1.0 67 67
+ 3.269378 0 1 poisson 500 ------- 0 0.0 1.0 68 68
- 3.269378 0 1 poisson 500 ------- 0 0.0 1.0 68 68
r 3.283378 0 1 poisson 500 ------- 0 0.0 1.0 68 68
+ 3.389101 0 1 poisson 500 ------- 0 0.0 1.0 69 69
- 3.389101 0 1 poisson 500 ------- 0 0.0 1.0 69 69
+ 3.394897 0 1 poisson 500 ------- 0 0.0 1.0 70 70
- 3.394897 0 1 poisson 500 ------- 0 0.0 1.0 70 70
r 3.403101 0 1 poisson 500 ------- 0 0.0 1.0 69 69
r 3.408897 0 1 poisson 500 ------- 0 0.0 1.0 70 70
+ 3.420074 0 1 poisson 500 ------- 0 0.0 1.0 71 71
- 3.420074 0 1 poisson 500 ------- 0 0.0 1.0 71 71
+ 3.432384 0 1 poisson 500 ------- 0 0.0 1.0 72 72
- 3.432384 0 1 poisson 500 ------- 0 0.0 1.0 72 72
r 3.434074 0 1 poisson 500 ------- 0 0.0 1.0 71 71
r 3.446384 0 1 poisson 500 ------- 0 0.0 1.0 72 72
+ 3.466968 0 1 poisson 500 ------- 0 0.0 1.0 73 73
- 3.466968 0 1 poisson 500 ------- 0 0.0 1.0 73 73
r 3.480968 0 1 poisson 500 ------- 0 0.0 1.0 73 73
+ 3.564094 0 1 poisson 500 ------- 0 0.0 1.0 74 74
- 3.564094 0 1 poisson 500 ------- 0 0.0 1.0 74 74
+ 3.572306 0 1 poisson 500 ------- 0 0.0 1.0 75 75
- 3.572306 0 1 poisson 500 ------- 0 0.0 1.0 75 75
+ 3.576394 0 1 poisson 500 ------- 0 0.0 1.0 76 76
- 3.576394 0 1 poisson 500 ------- 0 0.0 1.0 76 76
r 3.578094 0 1 poisson 500 ------- 0 0.0 1.0 74 74
r 3.586306 0 1 poisson 500 ------- 0 0.0 1.0 75 75
+ 3.58909 0 1 poisson 500 ------- 0 0.0 1.0 77 77
- 3.58909 0 1 poisson 500 ------- 0 0.0 1.0 77 77
r 3.590394 0 1 poisson 500 ------- 0 0.0 1.0 76 76
+ 3.594447 0 1 poisson 500 ------- 0 0.0 1.0 78 78
- 3.594447 0 1 poisson 500 ------- 0 0.0 1.0 78 78
r 3.60309 0 1 poisson 500 ------- 0 0.0 1.0 77 77
r 3.608447 0 1 poisson 500 ------- 0 0.0 1.0 78 78
+ 3.615817 0 1 poisson 500 ------- 0 0.0 1.0 79 79
- 3.615817 0 1 poisson 500 ------- 0 0.0 1.0 79 79
+ 3.628087 0 1 poisson 500 ------- 0 0.0 1.0 80 80
- 3.628087 0 1 poisson 500 ------- 0 0.0 1.0 80 80
r 3.629817 0 1 poisson 500 ------- 0 0.0 1.0 79 79
+ 3.636912 0 1 poisson 500 ------- 0 0.0 1.0 81 81
- 3.636912 0 1 poisson 500 ------- 0 0.0 1.0 81 81
r 3.642087 0 1 poisson 500 ------- 0 0.0 1.0 80 80
r 3.650912 0 1 poisson 500 ------- 0 0.0 1.0 81 81
+ 3.678219 0 1 poisson 500 ------- 0 0.0 1.0 82 82
- 3.678219 0 1 poisson 500 ------- 0 0.0 1.0 82 82
r 3.692219 0 1 poisson 500 ------- 0 0.0 1.0 82 82
+ 3.701525 0 1 poisson 500 ------- 0 0.0 1.0 83 83
- 3.701525 0 1 poisson 500 ------- 0 0.0 1.0 83 83
+ 3.709679 0 1 poisson 500 ------- 0 0.0 1.0 84 84
- 3.709679 0 1 poisson 500 ------- 0 0.0 1.0 84 84
r 3.715525 0 1 poisson 500 ------- 0 0.0 1.0 83 83
+ 3.719425 0 1 poisson 500 ------- 0 0.0 1.0 85 85
- 3.719425 0 1 poisson 500 ------- 0 0.0 1.0 85 85
r 3.723679 0 1 poisson 500 ------- 0 0.0 1.0 84 84
r 3.733425 0 1 poisson 500 ------- 0 0.0 1.0 85 85
+ 3.735832 0 1 poisson 500 ------- 0 0.0 1.0 86 86
- 3.735832 0 1 poisson 500 ------- 0 0.0 1.0 86 86
r 3.749832 0 1 poisson 500 ------- 0 0.0 1.0 86 86
+ 3.81172 0 1 poisson 500 ------- 0 0.0 1.0 87 87
- 3.81172 0 1 poisson 500 ------- 0 0.0 1.0 87 87
r 3.82572 0 1 poisson 500 ------- 0 0.0 1.0 87 87
+ 3.847739 0 1 poisson 500 ------- 0 0.0 1.0 88 88
- 3.847739 0 1 poisson 500 ------- 0 0.0 1.0 88 88
r 3.861739 0 1 poisson 500 ------- 0 0.0 1.0 88 88
+ 3.871935 0 1 poisson 500 ------- 0 0.0 1.0 89 89
- 3.871935 0 1 poisson 500 ------- 0 0.0 1.0 89 89
r 3.885935 0 1 poisson 500 ------- 0 0.0 1.0 89 89
+ 3.911318 0 1 poisson 500 ------- 0 0.0 1.0 90 90
- 3.911318 0 1 poisson 500 ------- 0 0.0 1.0 90 90
r 3.925318 0 1 poisson 500 ------- 0 0.0 1.0 90 90
+ 4.257452 0 1 poisson 500 ------- 0 0.0 1.0 91 91
- 4.257452 0 1 poisson 500 ------- 0 0.0 1.0 91 91
r 4.271452 0 1 poisson 500 ------- 0 0.0 1.0 91 91
+ 4.356802 0 1 poisson 500 ------- 0 0.0 1.0 92 92
- 4.356802 0 1 poisson 500 ------- 0 0.0 1.0 92 92
r 4.370802 0 1 poisson 500 ------- 0 0.0 1.0 92 92
+ 4.400881 0 1 poisson 500 ------- 0 0.0 1.0 93 93
- 4.400881 0 1 poisson 500 ------- 0 0.0 1.0 93 93
r 4.414881 0 1 poisson 500 ------- 0 0.0 1.0 93 93
+ 4.415395 0 1 poisson 500 ------- 0 0.0 1.0 94 94
- 4.415395 0 1 poisson 500 ------- 0 0.0 1.0 94 94
+ 4.419082 0 1 poisson 500 ------- 0 0.0 1.0 95 95
- 4.419395 0 1 poisson 500 ------- 0 0.0 1.0 95 95
r 4.429395 0 1 poisson 500 ------- 0 0.0 1.0 94 94
r 4.433395 0 1 poisson 500 ------- 0 0.0 1.0 95 95
+ 4.555785 0 1 poisson 500 ------- 0 0.0 1.0 96 96
- 4.555785 0 1 poisson 500 ------- 0 0.0 1.0 96 96
r 4.569785 0 1 poisson 500 ------- 0 0.0 1.0 96 96
+ 4.596072 0 1 poisson 500 ------- 0 0.0 1.0 97 97
- 4.596072 0 1 poisson 500 ------- 0 0.0 1.0 97 97
r 4.610072 0 1 poisson 500 ------- 0 0.0 1.0 97 97
+ 4.643571 0 1 poisson 500 ------- 0 0.0 1.0 98 98
- 4.643571 0 1 poisson 500 ------- 0 0.0 1.0 98 98
r 4.657571 0 1 poisson 500 ------- 0 0.0 1.0 98 98
+ 4.87152 0 1 poisson 500 ------- 0 0.0 1.0 99 99
- 4.87152 0 1 poisson 500 ------- 0 0.0 1.0 99 99
r 4.88552 0 1 poisson 500 ------- 0 0.0 1.0 99 99
+ 4.916881 0 1 poisson 500 ------- 0 0.0 1.0 100 100
- 4.916881 0 1 poisson 500 ------- 0 0.0 1.0 100 100
+ 4.921937 0 1 poisson 500 ------- 0 0.0 1.0 101 101
- 4.921937 0 1 poisson 500 ------- 0 0.0 1.0 101 101
+ 4.927051 0 1 poisson 500 ------- 0 0.0 1.0 102 102
- 4.927051 0 1 poisson 500 ------- 0 0.0 1.0 102 102
r 4.930881 0 1 poisson 500 ------- 0 0.0 1.0 100 100
+ 4.935686 0 1 poisson 500 ------- 0 0.0 1.0 103 103
- 4.935686 0 1 poisson 500 ------- 0 0.0 1.0 103 103
r 4.935937 0 1 poisson 500 ------- 0 0.0 1.0 101 101
r 4.941051 0 1 poisson 500 ------- 0 0.0 1.0 102 102
r 4.949686 0 1 poisson 500 ------- 0 0.0 1.0 103 103
+ 5.006278 0 1 poisson 500 ------- 0 0.0 1.0 104 104
- 5.006278 0 1 poisson 500 ------- 0 0.0 1.0 104 104
r 5.020278 0 1 poisson 500 ------- 0 0.0 1.0 104 104
+ 5.144032 0 1 poisson 500 ------- 0 0.0 1.0 105 105
- 5.144032 0 1 poisson 500 ------- 0 0.0 1.0 105 105
+ 5.155261 0 1 poisson 500 ------- 0 0.0 1.0 106 106
- 5.155261 0 1 poisson 500 ------- 0 0.0 1.0 106 106
r 5.158032 0 1 poisson 500 ------- 0 0.0 1.0 105 105
r 5.169261 0 1 poisson 500 ------- 0 0.0 1.0 106 106
+ 5.174684 0 1 poisson 500 ------- 0 0.0 1.0 107 107
- 5.174684 0 1 poisson 500 ------- 0 0.0 1.0 107 107
+ 5.184131 0 1 poisson 500 ------- 0 0.0 1.0 108 108
- 5.184131 0 1 poisson 500 ------- 0 0.0 1.0 108 108
r 5.188684 0 1 poisson 500 ------- 0 0.0 1.0 107 107
r 5.198131 0 1 poisson 500 ------- 0 0.0 1.0 108 108
+ 5.210231 0 1 poisson 500 ------- 0 0.0 1.0 109 109
- 5.210231 0 1 poisson 500 ------- 0 0.0 1.0 109 109
r 5.224231 0 1 poisson 500 ------- 0 0.0 1.0 109 109
+ 5.242059 0 1 poisson 500 ------- 0 0.0 1.0 110 110
- 5.242059 0 1 poisson 500 ------- 0 0.0 1.0 110 110
r 5.256059 0 1 poisson 500 ------- 0 0.0 1.0 110 110
+ 5.304942 0 1 poisson 500 ------- 0 0.0 1.0 111 111
- 5.304942 0 1 poisson 500 ------- 0 0.0 1.0 111 111
r 5.318942 0 1 poisson 500 ------- 0 0.0 1.0 111 111
+ 5.470356 0 1 poisson 500 ------- 0 0.0 1.0 112 112
- 5.470356 0 1 poisson 500 ------- 0 0.0 1.0 112 112
r 5.484356 0 1 poisson 500 ------- 0 0.0 1.0 112 112
+ 5.503203 0 1 poisson 500 ------- 0 0.0 1.0 113 113
- 5.503203 0 1 poisson 500 ------- 0 0.0 1.0 113 113
r 5.517203 0 1 poisson 500 ------- 0 0.0 1.0 113 113
+ 5.536295 0 1 poisson 500 ------- 0 0.0 1.0 114 114
- 5.536295 0 1 poisson 500 ------- 0 0.0 1.0 114 114
r 5.550295 0 1 poisson 500 ------- 0 0.0 1.0 114 114
+ 5.580495 0 1 poisson 500 ------- 0 0.0 1.0 115 115
- 5.580495 0 1 poisson 500 ------- 0 0.0 1.0 115 115
r 5.594495 0 1 poisson 500 ------- 0 0.0 1.0 115 115
+ 5.665581 0 1 poisson 500 ------- 0 0.0 1.0 116 116
- 5.665581 0 1 poisson 500 ------- 0 0.0 1.0 116 116
+ 5.669821 0 1 poisson 500 ------- 0 0.0 1.0 117 117
- 5.669821 0 1 poisson 500 ------- 0 0.0 1.0 117 117
r 5.679581 0 1 poisson 500 ------- 0 0.0 1.0 116 116
r 5.683821 0 1 poisson 500 ------- 0 0.0 1.0 117 117
+ 5.731464 0 1 poisson 500 ------- 0 0.0 1.0 118 118
- 5.731464 0 1 poisson 500 ------- 0 0.0 1.0 118 118
r 5.745464 0 1 poisson 500 ------- 0 0.0 1.0 118 118
+ 5.765185 0 1 poisson 500 ------- 0 0.0 1.0 119 119
- 5.765185 0 1 poisson 500 ------- 0 0.0 1.0 119 119
r 5.779185 0 1 poisson 500 ------- 0 0.0 1.0 119 119
+ 5.799607 0 1 poisson 500 ------- 0 0.0 1.0 120 120
- 5.799607 0 1 poisson 500 ------- 0 0.0 1.0 120 120
r 5.813607 0 1 poisson 500 ------- 0 0.0 1.0 120 120
+ 5.835518 0 1 poisson 500 ------- 0 0.0 1.0 121 121
- 5.835518 0 1 poisson 500 ------- 0 0.0 1.0 121 121
+ 5.847798 0 1 poisson 500 ------- 0 0.0 1.0 122 122
- 5.847798 0 1 poisson 500 ------- 0 0.0 1.0 122 122
r 5.849518 0 1 poisson 500 ------- 0 0.0 1.0 121 121
r 5.861798 0 1 poisson 500 ------- 0 0.0 1.0 122 122
+ 5.87676 0 1 poisson 500 ------- 0 0.0 1.0 123 123
- 5.87676 0 1 poisson 500 ------- 0 0.0 1.0 123 123
+ 5.881117 0 1 poisson 500 ------- 0 0.0 1.0 124 124
- 5.881117 0 1 poisson 500 ------- 0 0.0 1.0 124 124
r 5.89076 0 1 poisson 500 ------- 0 0.0 1.0 123 123
r 5.895117 0 1 poisson 500 ------- 0 0.0 1.0 124 124
+ 5.900053 0 1 poisson 500 ------- 0 0.0 1.0 125 125
- 5.900053 0 1 poisson 500 ------- 0 0.0 1.0 125 125
+ 5.906517 0 1 poisson 500 ------- 0 0.0 1.0 126 126
- 5.906517 0 1 poisson 500 ------- 0 0.0 1.0 126 126
r 5.914053 0 1 poisson 500 ------- 0 0.0 1.0 125 125
r 5.920517 0 1 poisson 500 ------- 0 0.0 1.0 126 126
+ 5.980193 0 1 poisson 500 ------- 0 0.0 1.0 127 127
- 5.980193 0 1 poisson 500 ------- 0 0.0 1.0 127 127
r 5.994193 0 1 poisson 500 ------- 0 0.0 1.0 127 127
+ 6.038028 0 1 poisson 500 ------- 0 0.0 1.0 128 128
- 6.038028 0 1 poisson 500 ------- 0 0.0 1.0 128 128
r 6.052028 0 1 poisson 500 ------- 0 0.0 1.0 128 128
+ 6.147678 0 1 poisson 500 ------- 0 0.0 1.0 129 129
- 6.147678 0 1 poisson 500 ------- 0 0.0 1.0 129 129
r 6.161678 0 1 poisson 500 ------- 0 0.0 1.0 129 129
+ 6.217014 0 1 poisson 500 ------- 0 0.0 1.0 130 130
- 6.217014 0 1 poisson 500 ------- 0 0.0 1.0 130 130
+ 6.222523 0 1 poisson 500 ------- 0 0.0 1.0 131 131
- 6.222523 0 1 poisson 500 ------- 0 0.0 1.0 131 131
r 6.231014 0 1 poisson 500 ------- 0 0.0 1.0 130 130
r 6.236523 0 1 poisson 500 ------- 0 0.0 1.0 131 131
+ 6.351777 0 1 poisson 500 ------- 0 0.0 1.0 132 132
- 6.351777 0 1 poisson 500 ------- 0 0.0 1.0 132 132
r 6.365777 0 1 poisson 500 ------- 0 0.0 1.0 132 132
+ 6.37367 0 1 poisson 500 ------- 0 0.0 1.0 133 133
- 6.37367 0 1 poisson 500 ------- 0 0.0 1.0 133 133
+ 6.387584 0 1 poisson 500 ------- 0 0.0 1.0 134 134
- 6.387584 0 1 poisson 500 ------- 0 0.0 1.0 134 134
r 6.38767 0 1 poisson 500 ------- 0 0.0 1.0 133 133
r 6.401584 0 1 poisson 500 ------- 0 0.0 1.0 134 134
+ 6.446926 0 1 poisson 500 ------- 0 0.0 1.0 135 135
- 6.446926 0 1 poisson 500 ------- 0 0.0 1.0 135 135
+ 6.454367 0 1 poisson 500 ------- 0 0.0 1.0 136 136
- 6.454367 0 1 poisson 500 ------- 0 0.0 1.0 136 136
r 6.460926 0 1 poisson 500 ------- 0 0.0 1.0 135 135
r 6.468367 0 1 poisson 500 ------- 0 0.0 1.0 136 136
+ 6.567781 0 1 poisson 500 ------- 0 0.0 1.0 137 137
- 6.567781 0 1 poisson 500 ------- 0 0.0 1.0 137 137
r 6.581781 0 1 poisson 500 ------- 0 0.0 1.0 137 137
+ 6.610938 0 1 poisson 500 ------- 0 0.0 1.0 138 138
- 6.610938 0 1 poisson 500 ------- 0 0.0 1.0 138 138
+ 6.620163 0 1 poisson 500 ------- 0 0.0 1.0 139 139
- 6.620163 0 1 poisson 500 ------- 0 0.0 1.0 139 139
r 6.624938 0 1 poisson 500 ------- 0 0.0 1.0 138 138
r 6.634163 0 1 poisson 500 ------- 0 0.0 1.0 139 139
+ 6.638198 0 1 poisson 500 ------- 0 0.0 1.0 140 140
- 6.638198 0 1 poisson 500 ------- 0 0.0 1.0 140 140
r 6.652198 0 1 poisson 500 ------- 0 0.0 1.0 140 140
+ 6.67164 0 1 poisson 500 ------- 0 0.0 1.0 141 141
- 6.67164 0 1 poisson 500 ------- 0 0.0 1.0 141 141
r 6.68564 0 1 poisson 500 ------- 0 0.0 1.0 141 141
+ 6.730606 0 1 poisson 500 ------- 0 0.0 1.0 142 142
- 6.730606 0 1 poisson 500 ------- 0 0.0 1.0 142 142
r 6.744606 0 1 poisson 500 ------- 0 0.0 1.0 142 142
+ 6.763278 0 1 poisson 500 ------- 0 0.0 1.0 143 143
- 6.763278 0 1 poisson 500 ------- 0 0.0 1.0 143 143
+ 6.765756 0 1 poisson 500 ------- 0 0.0 1.0 144 144
- 6.767278 0 1 poisson 500 ------- 0 0.0 1.0 144 144
r 6.777278 0 1 poisson 500 ------- 0 0.0 1.0 143 143
r 6.781278 0 1 poisson 500 ------- 0 0.0 1.0 144 144
+ 6.79682 0 1 poisson 500 ------- 0 0.0 1.0 145 145
- 6.79682 0 1 poisson 500 ------- 0 0.0 1.0 145 145
+ 6.80097 0 1 poisson 500 ------- 0 0.0 1.0 146 146
- 6.80097 0 1 poisson 500 ------- 0 0.0 1.0 146 146
+ 6.802698 0 1 poisson 500 ------- 0 0.0 1.0 147 147
- 6.80497 0 1 poisson 500 ------- 0 0.0 1.0 147 147
+ 6.80666 0 1 poisson 500 ------- 0 0.0 1.0 148 148
- 6.80897 0 1 poisson 500 ------- 0 0.0 1.0 148 148
r 6.81082 0 1 poisson 500 ------- 0 0.0 1.0 145 145
r 6.81497 0 1 poisson 500 ------- 0 0.0 1.0 146 146
r 6.81897 0 1 poisson 500 ------- 0 0.0 1.0 147 147
r 6.82297 0 1 poisson 500 ------- 0 0.0 1.0 148 148
+ 6.882069 0 1 poisson 500 ------- 0 0.0 1.0 149 149
- 6.882069 0 1 poisson 500 ------- 0 0.0 1.0 149 149
+ 6.884331 0 1 poisson 500 ------- 0 0.0 1.0 150 150
- 6.886069 0 1 poisson 500 ------- 0 0.0 1.0 150 150
r 6.896069 0 1 poisson 500 ------- 0 0.0 1.0 149 149
r 6.900069 0 1 poisson 500 ------- 0 0.0 1.0 150 150
+ 6.908961 0 1 poisson 500 ------- 0 0.0 1.0 151 151
- 6.908961 0 1 poisson 500 ------- 0 0.0 1.0 151 151
r 6.922961 0 1 poisson 500 ------- 0 0.0 1.0 151 151
+ 6.933954 0 1 poisson 500 ------- 0 0.0 1.0 152 152
- 6.933954 0 1 poisson 500 ------- 0 0.0 1.0 152 152
r 6.947954 0 1 poisson 500 ------- 0 0.0 1.0 152 152
+ 7.042386 0 1 poisson 500 ------- 0 0.0 1.0 153 153
- 7.042386 0 1 poisson 500 ------- 0 0.0 1.0 153 153
+ 7.043529 0 1 poisson 500 ------- 0 0.0 1.0 154 154
- 7.046386 0 1 poisson 500 ------- 0 0.0 1.0 154 154
r 7.056386 0 1 poisson 500 ------- 0 0.0 1.0 153 153
r 7.060386 0 1 poisson 500 ------- 0 0.0 1.0 154 154
+ 7.069837 0 1 poisson 500 ------- 0 0.0 1.0 155 155
- 7.069837 0 1 poisson 500 ------- 0 0.0 1.0 155 155
+ 7.074906 0 1 poisson 500 ------- 0 0.0 1.0 156 156
- 7.074906 0 1 poisson 500 ------- 0 0.0 1.0 156 156
r 7.083837 0 1 poisson 500 ------- 0 0.0 1.0 155 155
+ 7.087506 0 1 poisson 500 ------- 0 0.0 1.0 157 157
- 7.087506 0 1 poisson 500 ------- 0 0.0 1.0 157 157
r 7.088906 0 1 poisson 500 ------- 0 0.0 1.0 156 156
r 7.101506 0 1 poisson 500 ------- 0 0.0 1.0 157 157
+ 7.140952 0 1 poisson 500 ------- 0 0.0 1.0 158 158
- 7.140952 0 1 poisson 500 ------- 0 0.0 1.0 158 158
r 7.154952 0 1 poisson 500 ------- 0 0.0 1.0 158 158
+ 7.170351 0 1 poisson 500 ------- 0 0.0 1.0 159 159
- 7.170351 0 1 poisson 500 ------- 0 0.0 1.0 159 159
+ 7.181874 0 1 poisson 500 ------- 0 0.0 1.0 160 160
- 7.181874 0 1 poisson 500 ------- 0 0.0 1.0 160 160
r 7.184351 0 1 poisson 500 ------- 0 0.0 1.0 159 159
r 7.195874 0 1 poisson 500 ------- 0 0.0 1.0 160 160
+ 7.245092 0 1 poisson 500 ------- 0 0.0 1.0 161 161
- 7.245092 0 1 poisson 500 ------- 0 0.0 1.0 161 161
r 7.259092 0 1 poisson 500 ------- 0 0.0 1.0 161 161
+ 7.260792 0 1 poisson 500 ------- 0 0.0 1.0 162 162
- 7.260792 0 1 poisson 500 ------- 0 0.0 1.0 162 162
r 7.274792 0 1 poisson 500 ------- 0 0.0 1.0 162 162
+ 7.277579 0 1 poisson 500 ------- 0 0.0 1.0 163 163
- 7.277579 0 1 poisson 500 ------- 0 0.0 1.0 163 163
r 7.291579 0 1 poisson 500 ------- 0 0.0 1.0 163 163
+ 7.350421 0 1 poisson 500 ------- 0 0.0 1.0 164 164
- 7.350421 0 1 poisson 500 ------- 0 0.0 1.0 164 164
r 7.364421 0 1 poisson 500 ------- 0 0.0 1.0 164 164
+ 7.40358 0 1 poisson 500 ------- 0 0.0 1.0 165 165
- 7.40358 0 1 poisson 500 ------- 0 0.0 1.0 165 165
r 7.41758 0 1 poisson 500 ------- 0 0.0 1.0 165 165
+ 7.442427 0 1 poisson 500 ------- 0 0.0 1.0 166 166
- 7.442427 0 1 poisson 500 ------- 0 0.0 1.0 166 166
r 7.456427 0 1 poisson 500 ------- 0 0.0 1.0 166 166
+ 7.462086 0 1 poisson 500 ------- 0 0.0 1.0 167 167
- 7.462086 0 1 poisson 500 ------- 0 0.0 1.0 167 167
r 7.476086 0 1 poisson 500 ------- 0 0.0 1.0 167 167
+ 7.478983 0 1 poisson 500 ------- 0 0.0 1.0 168 168
- 7.478983 0 1 poisson 500 ------- 0 0.0 1.0 168 168
+ 7.48527 0 1 poisson 500 ------- 0 0.0 1.0 169 169
- 7.48527 0 1 poisson 500 ------- 0 0.0 1.0 169 169
r 7.492983 0 1 poisson 500 ------- 0 0.0 1.0 168 168
r 7.49927 0 1 poisson 500 ------- 0 0.0 1.0 169 169
+ 7.536128 0 1 poisson 500 ------- 0 0.0 1.0 170 170
- 7.536128 0 1 poisson 500 ------- 0 0.0 1.0 170 170
r 7.550128 0 1 poisson 500 ------- 0 0.0 1.0 170 170
+ 7.60785 0 1 poisson 500 ------- 0 0.0 1.0 171 171
- 7.60785 0 1 poisson 500 ------- 0 0.0 1.0 171 171
r 7.62185 0 1 poisson 500 ------- 0 0.0 1.0 171 171
+ 7.673673 0 1 poisson 500 ------- 0 0.0 1.0 172 172
- 7.673673 0 1 poisson 500 ------- 0 0.0 1.0 172 172
r 7.687673 0 1 poisson 500 ------- 0 0.0 1.0 172 172
+ 7.800885 0 1 poisson 500 ------- 0 0.0 1.0 173 173
- 7.800885 0 1 poisson 500 ------- 0 0.0 1.0 173 173
r 7.814885 0 1 poisson 500 ------- 0 0.0 1.0 173 173
+ 7.903237 0 1 poisson 500 ------- 0 0.0 1.0 174 174
- 7.903237 0 1 poisson 500 ------- 0 0.0 1.0 174 174
r 7.917237 0 1 poisson 500 ------- 0 0.0 1.0 174 174
+ 7.988243 0 1 poisson 500 ------- 0 0.0 1.0 175 175
- 7.988243 0 1 poisson 500 ------- 0 0.0 1.0 175 175
r 8.002243 0 1 poisson 500 ------- 0 0.0 1.0 175 175
+ 8.105056 0 1 poisson 500 ------- 0 0.0 1.0 176 176
- 8.105056 0 1 poisson 500 ------- 0 0.0 1.0 176 176
r 8.119056 0 1 poisson 500 ------- 0 0.0 1.0 176 176
+ 8.146018 0 1 poisson 500 ------- 0 0.0 1.0 177 177
- 8.146018 0 1 poisson 500 ------- 0 0.0 1.0 177 177
r 8.160018 0 1 poisson 500 ------- 0 0.0 1.0 177 177
+ 8.207626 0 1 poisson 500 ------- 0 0.0 1.0 178 178
- 8.207626 0 1 poisson 500 ------- 0 0.0 1.0 178 178
r 8.221626 0 1 poisson 500 ------- 0 0.0 1.0 178 178
+ 8.323392 0 1 poisson 500 ------- 0 0.0 1.0 179 179
- 8.323392 0 1 poisson 500 ------- 0 0.0 1.0 179 179
+ 8.325282 0 1 poisson 500 ------- 0 0.0 1.0 180 180
- 8.327392 0 1 poisson 500 ------- 0 0.0 1.0 180 180
+ 8.333112 0 1 poisson 500 ------- 0 0.0 1.0 181 181
- 8.333112 0 1 poisson 500 ------- 0 0.0 1.0 181 181
r 8.337392 0 1 poisson 500 ------- 0 0.0 1.0 179 179
r 8.341392 0 1 poisson 500 ------- 0 0.0 1.0 180 180
+ 8.346905 0 1 poisson 500 ------- 0 0.0 1.0 182 182
- 8.346905 0 1 poisson 500 ------- 0 0.0 1.0 182 182
r 8.347112 0 1 poisson 500 ------- 0 0.0 1.0 181 181
r 8.360905 0 1 poisson 500 ------- 0 0.0 1.0 182 182
+ 8.38063 0 1 poisson 500 ------- 0 0.0 1.0 183 183
- 8.38063 0 1 poisson 500 ------- 0 0.0 1.0 183 183
+ 8.388081 0 1 poisson 500 ------- 0 0.0 1.0 184 184
- 8.388081 0 1 poisson 500 ------- 0 0.0 1.0 184 184
r 8.39463 0 1 poisson 500 ------- 0 0.0 1.0 183 183
r 8.402081 0 1 poisson 500 ------- 0 0.0 1.0 184 184
+ 8.425457 0 1 poisson 500 ------- 0 0.0 1.0 185 185
- 8.425457 0 1 poisson 500 ------- 0 0.0 1.0 185 185
r 8.439457 0 1 poisson 500 ------- 0 0.0 1.0 185 185
+ 8.449848 0 1 poisson 500 ------- 0 0.0 1.0 186 186
- 8.449848 0 1 poisson 500 ------- 0 0.0 1.0 186 186
r 8.463848 0 1 poisson 500 ------- 0 0.0 1.0 186 186
+ 8.531506 0 1 poisson 500 ------- 0 0.0 1.0 187 187
- 8.531506 0 1 poisson 500 ------- 0 0.0 1.0 187 187
r 8.545506 0 1 poisson 500 ------- 0 0.0 1.0 187 187
+ 8.553279 0 1 poisson 500 ------- 0 0.0 1.0 188 188
- 8.553279 0 1 poisson 500 ------- 0 0.0 1.0 188 188
r 8.567279 0 1 poisson 500 ------- 0 0.0 1.0 188 188
+ 8.588263 0 1 poisson 500 ------- 0 0.0 1.0 189 189
- 8.588263 0 1 poisson 500 ------- 0 0.0 1.0 189 189
+ 8.595867 0 1 poisson 500 ------- 0 0.0 1.0 190 190
- 8.595867 0 1 poisson 500 ------- 0 0.0 1.0 190 190
r 8.602263 0 1 poisson 500 ------- 0 0.0 1.0 189 189
+ 8.604499 0 1 poisson 500 ------- 0 0.0 1.0 191 191
- 8.604499 0 1 poisson 500 ------- 0 0.0 1.0 191 191
r 8.609867 0 1 poisson 500 ------- 0 0.0 1.0 190 190
+ 8.610654 0 1 poisson 500 ------- 0 0.0 1.0 192 192
- 8.610654 0 1 poisson 500 ------- 0 0.0 1.0 192 192
r 8.618499 0 1 poisson 500 ------- 0 0.0 1.0 191 191
r 8.624654 0 1 poisson 500 ------- 0 0.0 1.0 192 192
+ 8.836533 0 1 poisson 500 ------- 0 0.0 1.0 193 193