+ 0 0 1 poisson 500 ------- 0 0.0 1.0 0 0
- 0 0 1 poisson 500 ------- 0 0.0 1.0 0 0
r 0.014 0 1 poisson 500 ------- 0 0.0 1.0 0 0
+ 0.015976 0 1 poisson 500 ------- 0 0.0 1.0 1 1
- 0.015976 0 1 poisson 500 ------- 0 0.0 1.0 1 1
+ 0.01715 0 1 poisson 500 ------- 0 0.0 1.0 2 2
- 0.019976 0 1 poisson 500 ------- 0 0.0 1.0 2 2
+ 0.025658 0 1 poisson 500 ------- 0 0.0 1.0 3 3
- 0.025658 0 1 poisson 500 ------- 0 0.0 1.0 3 3
r 0.029976 0 1 poisson 500 ------- 0 0.0 1.0 1 1
+ 0.030516 0 1 poisson 500 ------- 0 0.0 1.0 4 4
- 0.030516 0 1 poisson 500 ------- 0 0.0 1.0 4 4
+ 0.032153 0 1 poisson 500 ------- 0 0.0 1.0 5 5
+ 0.032601 0 1 poisson 500 ------- 0 0.0 1.0 6 6
r 0.033976 0 1 poisson 500 ------- 0 0.0 1.0 2 2
- 0.034516 0 1 poisson 500 ------- 0 0.0 1.0 5 5
+ 0.034925 0 1 poisson 500 ------- 0 0.0 1.0 7 7
+ 0.03533 0 1 poisson 500 ------- 0 0.0 1.0 8 8
+ 0.03823 0 1 poisson 500 ------- 0 0.0 1.0 9 9
- 0.038516 0 1 poisson 500 ------- 0 0.0 1.0 6 6
+ 0.039126 0 1 poisson 500 ------- 0 0.0 1.0 10 10
r 0.039658 0 1 poisson 500 ------- 0 0.0 1.0 3 3
+ 0.041475 0 1 poisson 500 ------- 0 0.0 1.0 11 11
+ 0.041832 0 1 poisson 500 ------- 0 0.0 1.0 12 12
- 0.042516 0 1 poisson 500 ------- 0 0.0 1.0 7 7
r 0.044516 0 1 poisson 500 ------- 0 0.0 1.0 4 4
+ 0.045446 0 1 poisson 500 ------- 0 0.0 1.0 13 13
- 0.046516 0 1 poisson 500 ------- 0 0.0 1.0 8 8
r 0.048516 0 1 poisson 500 ------- 0 0.0 1.0 5 5
- 0.050516 0 1 poisson 500 ------- 0 0.0 1.0 9 9
+ 0.051749 0 1 poisson 500 ------- 0 0.0 1.0 14 14
r 0.052516 0 1 poisson 500 ------- 0 0.0 1.0 6 6
+ 0.052641 0 1 poisson 500 ------- 0 0.0 1.0 15 15
- 0.054516 0 1 poisson 500 ------- 0 0.0 1.0 10 10
r 0.056516 0 1 poisson 500 ------- 0 0.0 1.0 7 7
+ 0.056988 0 1 poisson 500 ------- 0 0.0 1.0 16 16
+ 0.05729 0 1 poisson 500 ------- 0 0.0 1.0 17 17
- 0.058516 0 1 poisson 500 ------- 0 0.0 1.0 11 11
+ 0.059007 0 1 poisson 500 ------- 0 0.0 1.0 18 18
r 0.060516 0 1 poisson 500 ------- 0 0.0 1.0 8 8
+ 0.062496 0 1 poisson 500 ------- 0 0.0 1.0 19 19
- 0.062516 0 1 poisson 500 ------- 0 0.0 1.0 12 12
r 0.064516 0 1 poisson 500 ------- 0 0.0 1.0 9 9
- 0.066516 0 1 poisson 500 ------- 0 0.0 1.0 13 13
+ 0.067222 0 1 poisson 500 ------- 0 0.0 1.0 20 20
+ 0.06765 0 1 poisson 500 ------- 0 0.0 1.0 21 21
r 0.068516 0 1 poisson 500 ------- 0 0.0 1.0 10 10
+ 0.069757 0 1 poisson 500 ------- 0 0.0 1.0 22 22
- 0.070516 0 1 poisson 500 ------- 0 0.0 1.0 14 14
+ 0.072466 0 1 poisson 500 ------- 0 0.0 1.0 23 23
r 0.072516 0 1 poisson 500 ------- 0 0.0 1.0 11 11
+ 0.074256 0 1 poisson 500 ------- 0 0.0 1.0 24 24
- 0.074516 0 1 poisson 500 ------- 0 0.0 1.0 15 15
+ 0.075569 0 1 poisson 500 ------- 0 0.0 1.0 25 25
r 0.076516 0 1 poisson 500 ------- 0 0.0 1.0 12 12
+ 0.077095 0 1 poisson 500 ------- 0 0.0 1.0 26 26
+ 0.077831 0 1 poisson 500 ------- 0 0.0 1.0 27 27
+ 0.078128 0 1 poisson 500 ------- 0 0.0 1.0 28 28
+ 0.078477 0 1 poisson 500 ------- 0 0.0 1.0 29 29
- 0.078516 0 1 poisson 500 ------- 0 0.0 1.0 16 16
r 0.080516 0 1 poisson 500 ------- 0 0.0 1.0 13 13
+ 0.081531 0 1 poisson 500 ------- 0 0.0 1.0 30 30
- 0.082516 0 1 poisson 500 ------- 0 0.0 1.0 17 17
+ 0.084375 0 1 poisson 500 ------- 0 0.0 1.0 31 31
r 0.084516 0 1 poisson 500 ------- 0 0.0 1.0 14 14
+ 0.084698 0 1 poisson 500 ------- 0 0.0 1.0 32 32
+ 0.085477 0 1 poisson 500 ------- 0 0.0 1.0 33 33
+ 0.08602 0 1 poisson 500 ------- 0 0.0 1.0 34 34
+ 0.08622 0 1 poisson 500 ------- 0 0.0 1.0 35 35
- 0.086516 0 1 poisson 500 ------- 0 0.0 1.0 18 18
+ 0.088025 0 1 poisson 500 ------- 0 0.0 1.0 36 36
r 0.088516 0 1 poisson 500 ------- 0 0.0 1.0 15 15
- 0.090516 0 1 poisson 500 ------- 0 0.0 1.0 19 19
+ 0.092454 0 1 poisson 500 ------- 0 0.0 1.0 37 37
r 0.092516 0 1 poisson 500 ------- 0 0.0 1.0 16 16
+ 0.094266 0 1 poisson 500 ------- 0 0.0 1.0 38 38
- 0.094516 0 1 poisson 500 ------- 0 0.0 1.0 20 20
r 0.096516 0 1 poisson 500 ------- 0 0.0 1.0 17 17
+ 0.097615 0 1 poisson 500 ------- 0 0.0 1.0 39 39
+ 0.097854 0 1 poisson 500 ------- 0 0.0 1.0 40 40
+ 0.097964 0 1 poisson 500 ------- 0 0.0 1.0 41 41
+ 0.098194 0 1 poisson 500 ------- 0 0.0 1.0 42 42
- 0.098516 0 1 poisson 500 ------- 0 0.0 1.0 21 21
r 0.100516 0 1 poisson 500 ------- 0 0.0 1.0 18 18
- 0.102516 0 1 poisson 500 ------- 0 0.0 1.0 22 22
+ 0.102572 0 1 poisson 500 ------- 0 0.0 1.0 43 43
r 0.104516 0 1 poisson 500 ------- 0 0.0 1.0 19 19
- 0.106516 0 1 poisson 500 ------- 0 0.0 1.0 23 23
+ 0.108253 0 1 poisson 500 ------- 0 0.0 1.0 44 44
r 0.108516 0 1 poisson 500 ------- 0 0.0 1.0 20 20
- 0.110516 0 1 poisson 500 ------- 0 0.0 1.0 24 24
r 0.112516 0 1 poisson 500 ------- 0 0.0 1.0 21 21
- 0.114516 0 1 poisson 500 ------- 0 0.0 1.0 25 25
r 0.116516 0 1 poisson 500 ------- 0 0.0 1.0 22 22
+ 0.117308 0 1 poisson 500 ------- 0 0.0 1.0 45 45
+ 0.118346 0 1 poisson 500 ------- 0 0.0 1.0 46 46
- 0.118516 0 1 poisson 500 ------- 0 0.0 1.0 26 26
r 0.120516 0 1 poisson 500 ------- 0 0.0 1.0 23 23
+ 0.120529 0 1 poisson 500 ------- 0 0.0 1.0 47 47
- 0.122516 0 1 poisson 500 ------- 0 0.0 1.0 27 27
r 0.124516 0 1 poisson 500 ------- 0 0.0 1.0 24 24
+ 0.124719 0 1 poisson 500 ------- 0 0.0 1.0 48 48
+ 0.125524 0 1 poisson 500 ------- 0 0.0 1.0 49 49
- 0.126516 0 1 poisson 500 ------- 0 0.0 1.0 28 28
+ 0.128241 0 1 poisson 500 ------- 0 0.0 1.0 50 50
r 0.128516 0 1 poisson 500 ------- 0 0.0 1.0 25 25
+ 0.128959 0 1 poisson 500 ------- 0 0.0 1.0 51 51
+ 0.130173 0 1 poisson 500 ------- 0 0.0 1.0 52 52
+ 0.130436 0 1 poisson 500 ------- 0 0.0 1.0 53 53
- 0.130516 0 1 poisson 500 ------- 0 0.0 1.0 29 29
r 0.132516 0 1 poisson 500 ------- 0 0.0 1.0 26 26
+ 0.133117 0 1 poisson 500 ------- 0 0.0 1.0 54 54
+ 0.134295 0 1 poisson 500 ------- 0 0.0 1.0 55 55
- 0.134516 0 1 poisson 500 ------- 0 0.0 1.0 30 30
+ 0.136003 0 1 poisson 500 ------- 0 0.0 1.0 56 56
r 0.136516 0 1 poisson 500 ------- 0 0.0 1.0 27 27
- 0.138516 0 1 poisson 500 ------- 0 0.0 1.0 31 31
r 0.140516 0 1 poisson 500 ------- 0 0.0 1.0 28 28
- 0.142516 0 1 poisson 500 ------- 0 0.0 1.0 32 32
+ 0.143186 0 1 poisson 500 ------- 0 0.0 1.0 57 57
r 0.144516 0 1 poisson 500 ------- 0 0.0 1.0 29 29
+ 0.145419 0 1 poisson 500 ------- 0 0.0 1.0 58 58
- 0.146516 0 1 poisson 500 ------- 0 0.0 1.0 33 33
r 0.148516 0 1 poisson 500 ------- 0 0.0 1.0 30 30
+ 0.148781 0 1 poisson 500 ------- 0 0.0 1.0 59 59
+ 0.149265 0 1 poisson 500 ------- 0 0.0 1.0 60 60
+ 0.149375 0 1 poisson 500 ------- 0 0.0 1.0 61 61
+ 0.14989 0 1 poisson 500 ------- 0 0.0 1.0 62 62
- 0.150516 0 1 poisson 500 ------- 0 0.0 1.0 34 34
r 0.152516 0 1 poisson 500 ------- 0 0.0 1.0 31 31
+ 0.153043 0 1 poisson 500 ------- 0 0.0 1.0 63 63
+ 0.153771 0 1 poisson 500 ------- 0 0.0 1.0 64 64
- 0.154516 0 1 poisson 500 ------- 0 0.0 1.0 35 35
r 0.156516 0 1 poisson 500 ------- 0 0.0 1.0 32 32
+ 0.157215 0 1 poisson 500 ------- 0 0.0 1.0 65 65
+ 0.157263 0 1 poisson 500 ------- 0 0.0 1.0 66 66
- 0.158516 0 1 poisson 500 ------- 0 0.0 1.0 36 36
r 0.160516 0 1 poisson 500 ------- 0 0.0 1.0 33 33
+ 0.162049 0 1 poisson 500 ------- 0 0.0 1.0 67 67
- 0.162516 0 1 poisson 500 ------- 0 0.0 1.0 37 37
+ 0.163469 0 1 poisson 500 ------- 0 0.0 1.0 68 68
r 0.164516 0 1 poisson 500 ------- 0 0.0 1.0 34 34
- 0.166516 0 1 poisson 500 ------- 0 0.0 1.0 38 38
r 0.168516 0 1 poisson 500 ------- 0 0.0 1.0 35 35
+ 0.169455 0 1 poisson 500 ------- 0 0.0 1.0 69 69
+ 0.169745 0 1 poisson 500 ------- 0 0.0 1.0 70 70
- 0.170516 0 1 poisson 500 ------- 0 0.0 1.0 39 39
+ 0.171004 0 1 poisson 500 ------- 0 0.0 1.0 71 71
+ 0.171619 0 1 poisson 500 ------- 0 0.0 1.0 72 72
r 0.172516 0 1 poisson 500 ------- 0 0.0 1.0 36 36
+ 0.173348 0 1 poisson 500 ------- 0 0.0 1.0 73 73
- 0.174516 0 1 poisson 500 ------- 0 0.0 1.0 40 40
r 0.176516 0 1 poisson 500 ------- 0 0.0 1.0 37 37
+ 0.178205 0 1 poisson 500 ------- 0 0.0 1.0 74 74
- 0.178516 0 1 poisson 500 ------- 0 0.0 1.0 41 41
+ 0.178615 0 1 poisson 500 ------- 0 0.0 1.0 75 75
+ 0.17882 0 1 poisson 500 ------- 0 0.0 1.0 76 76
+ 0.179455 0 1 poisson 500 ------- 0 0.0 1.0 77 77
+ 0.179722 0 1 poisson 500 ------- 0 0.0 1.0 78 78
r 0.180516 0 1 poisson 500 ------- 0 0.0 1.0 38 38
+ 0.180791 0 1 poisson 500 ------- 0 0.0 1.0 79 79
+ 0.181404 0 1 poisson 500 ------- 0 0.0 1.0 80 80
+ 0.181846 0 1 poisson 500 ------- 0 0.0 1.0 81 81
- 0.182516 0 1 poisson 500 ------- 0 0.0 1.0 42 42
+ 0.183911 0 1 poisson 500 ------- 0 0.0 1.0 82 82
r 0.184516 0 1 poisson 500 ------- 0 0.0 1.0 39 39
+ 0.185076 0 1 poisson 500 ------- 0 0.0 1.0 83 83
+ 0.185484 0 1 poisson 500 ------- 0 0.0 1.0 84 84
+ 0.185971 0 1 poisson 500 ------- 0 0.0 1.0 85 85
- 0.186516 0 1 poisson 500 ------- 0 0.0 1.0 43 43
+ 0.186792 0 1 poisson 500 ------- 0 0.0 1.0 86 86
r 0.188516 0 1 poisson 500 ------- 0 0.0 1.0 40 40
- 0.190516 0 1 poisson 500 ------- 0 0.0 1.0 44 44
+ 0.190586 0 1 poisson 500 ------- 0 0.0 1.0 87 87
+ 0.192387 0 1 poisson 500 ------- 0 0.0 1.0 88 88
r 0.192516 0 1 poisson 500 ------- 0 0.0 1.0 41 41
+ 0.193597 0 1 poisson 500 ------- 0 0.0 1.0 89 89
- 0.194516 0 1 poisson 500 ------- 0 0.0 1.0 45 45
+ 0.195566 0 1 poisson 500 ------- 0 0.0 1.0 90 90
r 0.196516 0 1 poisson 500 ------- 0 0.0 1.0 42 42
- 0.198516 0 1 poisson 500 ------- 0 0.0 1.0 46 46
r 0.200516 0 1 poisson 500 ------- 0 0.0 1.0 43 43
- 0.202516 0 1 poisson 500 ------- 0 0.0 1.0 47 47
r 0.204516 0 1 poisson 500 ------- 0 0.0 1.0 44 44
- 0.206516 0 1 poisson 500 ------- 0 0.0 1.0 48 48
r 0.208516 0 1 poisson 500 ------- 0 0.0 1.0 45 45
- 0.210516 0 1 poisson 500 ------- 0 0.0 1.0 49 49
r 0.212516 0 1 poisson 500 ------- 0 0.0 1.0 46 46
+ 0.212873 0 1 poisson 500 ------- 0 0.0 1.0 91 91
- 0.214516 0 1 poisson 500 ------- 0 0.0 1.0 50 50
r 0.216516 0 1 poisson 500 ------- 0 0.0 1.0 47 47
+ 0.21784 0 1 poisson 500 ------- 0 0.0 1.0 92 92
- 0.218516 0 1 poisson 500 ------- 0 0.0 1.0 51 51
+ 0.220044 0 1 poisson 500 ------- 0 0.0 1.0 93 93
r 0.220516 0 1 poisson 500 ------- 0 0.0 1.0 48 48
+ 0.22077 0 1 poisson 500 ------- 0 0.0 1.0 94 94
+ 0.220954 0 1 poisson 500 ------- 0 0.0 1.0 95 95
- 0.222516 0 1 poisson 500 ------- 0 0.0 1.0 52 52
r 0.224516 0 1 poisson 500 ------- 0 0.0 1.0 49 49
- 0.226516 0 1 poisson 500 ------- 0 0.0 1.0 53 53
+ 0.227789 0 1 poisson 500 ------- 0 0.0 1.0 96 96
r 0.228516 0 1 poisson 500 ------- 0 0.0 1.0 50 50
+ 0.229804 0 1 poisson 500 ------- 0 0.0 1.0 97 97
- 0.230516 0 1 poisson 500 ------- 0 0.0 1.0 54 54
+ 0.232179 0 1 poisson 500 ------- 0 0.0 1.0 98 98
r 0.232516 0 1 poisson 500 ------- 0 0.0 1.0 51 51
- 0.234516 0 1 poisson 500 ------- 0 0.0 1.0 55 55
r 0.236516 0 1 poisson 500 ------- 0 0.0 1.0 52 52
- 0.238516 0 1 poisson 500 ------- 0 0.0 1.0 56 56
r 0.240516 0 1 poisson 500 ------- 0 0.0 1.0 53 53
- 0.242516 0 1 poisson 500 ------- 0 0.0 1.0 57 57
+ 0.243576 0 1 poisson 500 ------- 0 0.0 1.0 99 99
r 0.244516 0 1 poisson 500 ------- 0 0.0 1.0 54 54
+ 0.245844 0 1 poisson 500 ------- 0 0.0 1.0 100 100
+ 0.246097 0 1 poisson 500 ------- 0 0.0 1.0 101 101
+ 0.246353 0 1 poisson 500 ------- 0 0.0 1.0 102 102
- 0.246516 0 1 poisson 500 ------- 0 0.0 1.0 58 58
+ 0.246784 0 1 poisson 500 ------- 0 0.0 1.0 103 103
r 0.248516 0 1 poisson 500 ------- 0 0.0 1.0 55 55
+ 0.250314 0 1 poisson 500 ------- 0 0.0 1.0 104 104
- 0.250516 0 1 poisson 500 ------- 0 0.0 1.0 59 59
r 0.252516 0 1 poisson 500 ------- 0 0.0 1.0 56 56
- 0.254516 0 1 poisson 500 ------- 0 0.0 1.0 60 60
r 0.256516 0 1 poisson 500 ------- 0 0.0 1.0 57 57
+ 0.257202 0 1 poisson 500 ------- 0 0.0 1.0 105 105
+ 0.257763 0 1 poisson 500 ------- 0 0.0 1.0 106 106
- 0.258516 0 1 poisson 500 ------- 0 0.0 1.0 61 61
+ 0.258734 0 1 poisson 500 ------- 0 0.0 1.0 107 107
+ 0.259207 0 1 poisson 500 ------- 0 0.0 1.0 108 108
+ 0.260512 0 1 poisson 500 ------- 0 0.0 1.0 109 109
r 0.260516 0 1 poisson 500 ------- 0 0.0 1.0 58 58
+ 0.262103 0 1 poisson 500 ------- 0 0.0 1.0 110 110
- 0.262516 0 1 poisson 500 ------- 0 0.0 1.0 62 62
r 0.264516 0 1 poisson 500 ------- 0 0.0 1.0 59 59
+ 0.265247 0 1 poisson 500 ------- 0 0.0 1.0 111 111
- 0.266516 0 1 poisson 500 ------- 0 0.0 1.0 63 63
r 0.268516 0 1 poisson 500 ------- 0 0.0 1.0 60 60
- 0.270516 0 1 poisson 500 ------- 0 0.0 1.0 64 64
r 0.272516 0 1 poisson 500 ------- 0 0.0 1.0 61 61
+ 0.273518 0 1 poisson 500 ------- 0 0.0 1.0 112 112
- 0.274516 0 1 poisson 500 ------- 0 0.0 1.0 65 65
+ 0.27516 0 1 poisson 500 ------- 0 0.0 1.0 113 113
r 0.276516 0 1 poisson 500 ------- 0 0.0 1.0 62 62
+ 0.276815 0 1 poisson 500 ------- 0 0.0 1.0 114 114
- 0.278516 0 1 poisson 500 ------- 0 0.0 1.0 66 66
+ 0.279025 0 1 poisson 500 ------- 0 0.0 1.0 115 115
r 0.280516 0 1 poisson 500 ------- 0 0.0 1.0 63 63
- 0.282516 0 1 poisson 500 ------- 0 0.0 1.0 67 67
+ 0.283279 0 1 poisson 500 ------- 0 0.0 1.0 116 116
+ 0.283491 0 1 poisson 500 ------- 0 0.0 1.0 117 117
d 0.283491 0 1 poisson 500 ------- 0 0.0 1.0 117 117
r 0.284516 0 1 poisson 500 ------- 0 0.0 1.0 64 64
- 0.286516 0 1 poisson 500 ------- 0 0.0 1.0 68 68
+ 0.286573 0 1 poisson 500 ------- 0 0.0 1.0 118 118
+ 0.288259 0 1 poisson 500 ------- 0 0.0 1.0 119 119
d 0.288259 0 1 poisson 500 ------- 0 0.0 1.0 119 119
r 0.288516 0 1 poisson 500 ------- 0 0.0 1.0 65 65
+ 0.28998 0 1 poisson 500 ------- 0 0.0 1.0 120 120
d 0.28998 0 1 poisson 500 ------- 0 0.0 1.0 120 120
- 0.290516 0 1 poisson 500 ------- 0 0.0 1.0 69 69
+ 0.291776 0 1 poisson 500 ------- 0 0.0 1.0 121 121
+ 0.29239 0 1 poisson 500 ------- 0 0.0 1.0 122 122
d 0.29239 0 1 poisson 500 ------- 0 0.0 1.0 122 122
r 0.292516 0 1 poisson 500 ------- 0 0.0 1.0 66 66
+ 0.293838 0 1 poisson 500 ------- 0 0.0 1.0 123 123
d 0.293838 0 1 poisson 500 ------- 0 0.0 1.0 123 123
+ 0.294056 0 1 poisson 500 ------- 0 0.0 1.0 124 124
d 0.294056 0 1 poisson 500 ------- 0 0.0 1.0 124 124
- 0.294516 0 1 poisson 500 ------- 0 0.0 1.0 70 70
+ 0.295003 0 1 poisson 500 ------- 0 0.0 1.0 125 125
+ 0.295326 0 1 poisson 500 ------- 0 0.0 1.0 126 126
d 0.295326 0 1 poisson 500 ------- 0 0.0 1.0 126 126
r 0.296516 0 1 poisson 500 ------- 0 0.0 1.0 67 67
- 0.298516 0 1 poisson 500 ------- 0 0.0 1.0 71 71
+ 0.29901 0 1 poisson 500 ------- 0 0.0 1.0 127 127
r 0.300516 0 1 poisson 500 ------- 0 0.0 1.0 68 68
+ 0.301901 0 1 poisson 500 ------- 0 0.0 1.0 128 128
d 0.301901 0 1 poisson 500 ------- 0 0.0 1.0 128 128
- 0.302516 0 1 poisson 500 ------- 0 0.0 1.0 72 72
r 0.304516 0 1 poisson 500 ------- 0 0.0 1.0 69 69
- 0.306516 0 1 poisson 500 ------- 0 0.0 1.0 73 73
+ 0.307384 0 1 poisson 500 ------- 0 0.0 1.0 129 129
r 0.308516 0 1 poisson 500 ------- 0 0.0 1.0 70 70
- 0.310516 0 1 poisson 500 ------- 0 0.0 1.0 74 74
+ 0.310851 0 1 poisson 500 ------- 0 0.0 1.0 130 130
+ 0.311126 0 1 poisson 500 ------- 0 0.0 1.0 131 131
r 0.312516 0 1 poisson 500 ------- 0 0.0 1.0 71 71
- 0.314516 0 1 poisson 500 ------- 0 0.0 1.0 75 75
r 0.316516 0 1 poisson 500 ------- 0 0.0 1.0 72 72
+ 0.317589 0 1 poisson 500 ------- 0 0.0 1.0 132 132
- 0.318516 0 1 poisson 500 ------- 0 0.0 1.0 76 76
+ 0.318683 0 1 poisson 500 ------- 0 0.0 1.0 133 133
+ 0.319379 0 1 poisson 500 ------- 0 0.0 1.0 134 134
d 0.319379 0 1 poisson 500 ------- 0 0.0 1.0 134 134
r 0.320516 0 1 poisson 500 ------- 0 0.0 1.0 73 73
+ 0.322346 0 1 poisson 500 ------- 0 0.0 1.0 135 135
d 0.322346 0 1 poisson 500 ------- 0 0.0 1.0 135 135
- 0.322516 0 1 poisson 500 ------- 0 0.0 1.0 77 77
+ 0.322718 0 1 poisson 500 ------- 0 0.0 1.0 136 136
r 0.324516 0 1 poisson 500 ------- 0 0.0 1.0 74 74
- 0.326516 0 1 poisson 500 ------- 0 0.0 1.0 78 78
+ 0.328389 0 1 poisson 500 ------- 0 0.0 1.0 137 137
r 0.328516 0 1 poisson 500 ------- 0 0.0 1.0 75 75
- 0.330516 0 1 poisson 500 ------- 0 0.0 1.0 79 79
+ 0.330547 0 1 poisson 500 ------- 0 0.0 1.0 138 138
+ 0.331008 0 1 poisson 500 ------- 0 0.0 1.0 139 139
d 0.331008 0 1 poisson 500 ------- 0 0.0 1.0 139 139
+ 0.33191 0 1 poisson 500 ------- 0 0.0 1.0 140 140
d 0.33191 0 1 poisson 500 ------- 0 0.0 1.0 140 140
r 0.332516 0 1 poisson 500 ------- 0 0.0 1.0 76 76
+ 0.333582 0 1 poisson 500 ------- 0 0.0 1.0 141 141
d 0.333582 0 1 poisson 500 ------- 0 0.0 1.0 141 141
- 0.334516 0 1 poisson 500 ------- 0 0.0 1.0 80 80
r 0.336516 0 1 poisson 500 ------- 0 0.0 1.0 77 77
+ 0.33653 0 1 poisson 500 ------- 0 0.0 1.0 142 142
+ 0.338164 0 1 poisson 500 ------- 0 0.0 1.0 143 143
d 0.338164 0 1 poisson 500 ------- 0 0.0 1.0 143 143
+ 0.338288 0 1 poisson 500 ------- 0 0.0 1.0 144 144
d 0.338288 0 1 poisson 500 ------- 0 0.0 1.0 144 144
- 0.338516 0 1 poisson 500 ------- 0 0.0 1.0 81 81
+ 0.339841 0 1 poisson 500 ------- 0 0.0 1.0 145 145
+ 0.340049 0 1 poisson 500 ------- 0 0.0 1.0 146 146
d 0.340049 0 1 poisson 500 ------- 0 0.0 1.0 146 146
+ 0.340135 0 1 poisson 500 ------- 0 0.0 1.0 147 147
d 0.340135 0 1 poisson 500 ------- 0 0.0 1.0 147 147
+ 0.340333 0 1 poisson 500 ------- 0 0.0 1.0 148 148
d 0.340333 0 1 poisson 500 ------- 0 0.0 1.0 148 148
r 0.340516 0 1 poisson 500 ------- 0 0.0 1.0 78 78
- 0.342516 0 1 poisson 500 ------- 0 0.0 1.0 82 82
+ 0.344103 0 1 poisson 500 ------- 0 0.0 1.0 149 149
+ 0.344217 0 1 poisson 500 ------- 0 0.0 1.0 150 150
d 0.344217 0 1 poisson 500 ------- 0 0.0 1.0 150 150
r 0.344516 0 1 poisson 500 ------- 0 0.0 1.0 79 79
+ 0.345448 0 1 poisson 500 ------- 0 0.0 1.0 151 151
d 0.345448 0 1 poisson 500 ------- 0 0.0 1.0 151 151
- 0.346516 0 1 poisson 500 ------- 0 0.0 1.0 83 83
+ 0.346698 0 1 poisson 500 ------- 0 0.0 1.0 152 152
r 0.348516 0 1 poisson 500 ------- 0 0.0 1.0 80 80
- 0.350516 0 1 poisson 500 ------- 0 0.0 1.0 84 84
+ 0.352119 0 1 poisson 500 ------- 0 0.0 1.0 153 153
+ 0.352176 0 1 poisson 500 ------- 0 0.0 1.0 154 154
d 0.352176 0 1 poisson 500 ------- 0 0.0 1.0 154 154
r 0.352516 0 1 poisson 500 ------- 0 0.0 1.0 81 81
+ 0.353492 0 1 poisson 500 ------- 0 0.0 1.0 155 155
d 0.353492 0 1 poisson 500 ------- 0 0.0 1.0 155 155
+ 0.353745 0 1 poisson 500 ------- 0 0.0 1.0 156 156
d 0.353745 0 1 poisson 500 ------- 0 0.0 1.0 156 156
+ 0.354375 0 1 poisson 500 ------- 0 0.0 1.0 157 157
d 0.354375 0 1 poisson 500 ------- 0 0.0 1.0 157 157
- 0.354516 0 1 poisson 500 ------- 0 0.0 1.0 85 85
r 0.356516 0 1 poisson 500 ------- 0 0.0 1.0 82 82
+ 0.357048 0 1 poisson 500 ------- 0 0.0 1.0 158 158
- 0.358516 0 1 poisson 500 ------- 0 0.0 1.0 86 86
+ 0.358518 0 1 poisson 500 ------- 0 0.0 1.0 159 159
+ 0.359094 0 1 poisson 500 ------- 0 0.0 1.0 160 160
d 0.359094 0 1 poisson 500 ------- 0 0.0 1.0 160 160
r 0.360516 0 1 poisson 500 ------- 0 0.0 1.0 83 83
+ 0.362255 0 1 poisson 500 ------- 0 0.0 1.0 161 161
d 0.362255 0 1 poisson 500 ------- 0 0.0 1.0 161 161
- 0.362516 0 1 poisson 500 ------- 0 0.0 1.0 87 87
+ 0.36304 0 1 poisson 500 ------- 0 0.0 1.0 162 162
+ 0.363879 0 1 poisson 500 ------- 0 0.0 1.0 163 163
d 0.363879 0 1 poisson 500 ------- 0 0.0 1.0 163 163
r 0.364516 0 1 poisson 500 ------- 0 0.0 1.0 84 84
- 0.366516 0 1 poisson 500 ------- 0 0.0 1.0 88 88
+ 0.367521 0 1 poisson 500 ------- 0 0.0 1.0 164 164
r 0.368516 0 1 poisson 500 ------- 0 0.0 1.0 85 85
+ 0.370179 0 1 poisson 500 ------- 0 0.0 1.0 165 165
d 0.370179 0 1 poisson 500 ------- 0 0.0 1.0 165 165
- 0.370516 0 1 poisson 500 ------- 0 0.0 1.0 89 89
+ 0.372121 0 1 poisson 500 ------- 0 0.0 1.0 166 166
r 0.372516 0 1 poisson 500 ------- 0 0.0 1.0 86 86
+ 0.373104 0 1 poisson 500 ------- 0 0.0 1.0 167 167
d 0.373104 0 1 poisson 500 ------- 0 0.0 1.0 167 167
+ 0.373949 0 1 poisson 500 ------- 0 0.0 1.0 168 168
d 0.373949 0 1 poisson 500 ------- 0 0.0 1.0 168 168
+ 0.374264 0 1 poisson 500 ------- 0 0.0 1.0 169 169
d 0.374264 0 1 poisson 500 ------- 0 0.0 1.0 169 169
- 0.374516 0 1 poisson 500 ------- 0 0.0 1.0 90 90
r 0.376516 0 1 poisson 500 ------- 0 0.0 1.0 87 87
+ 0.376806 0 1 poisson 500 ------- 0 0.0 1.0 170 170
- 0.378516 0 1 poisson 500 ------- 0 0.0 1.0 91 91
+ 0.380393 0 1 poisson 500 ------- 0 0.0 1.0 171 171
r 0.380516 0 1 poisson 500 ------- 0 0.0 1.0 88 88
- 0.382516 0 1 poisson 500 ------- 0 0.0 1.0 92 92
+ 0.383684 0 1 poisson 500 ------- 0 0.0 1.0 172 172
r 0.384516 0 1 poisson 500 ------- 0 0.0 1.0 89 89
- 0.386516 0 1 poisson 500 ------- 0 0.0 1.0 93 93
r 0.388516 0 1 poisson 500 ------- 0 0.0 1.0 90 90
+ 0.390044 0 1 poisson 500 ------- 0 0.0 1.0 173 173
- 0.390516 0 1 poisson 500 ------- 0 0.0 1.0 94 94
r 0.392516 0 1 poisson 500 ------- 0 0.0 1.0 91 91
- 0.394516 0 1 poisson 500 ------- 0 0.0 1.0 95 95
+ 0.395162 0 1 poisson 500 ------- 0 0.0 1.0 174 174
r 0.396516 0 1 poisson 500 ------- 0 0.0 1.0 92 92
- 0.398516 0 1 poisson 500 ------- 0 0.0 1.0 96 96
+ 0.399412 0 1 poisson 500 ------- 0 0.0 1.0 175 175
r 0.400516 0 1 poisson 500 ------- 0 0.0 1.0 93 93
- 0.402516 0 1 poisson 500 ------- 0 0.0 1.0 97 97
r 0.404516 0 1 poisson 500 ------- 0 0.0 1.0 94 94
+ 0.405253 0 1 poisson 500 ------- 0 0.0 1.0 176 176
- 0.406516 0 1 poisson 500 ------- 0 0.0 1.0 98 98
+ 0.407301 0 1 poisson 500 ------- 0 0.0 1.0 177 177
r 0.408516 0 1 poisson 500 ------- 0 0.0 1.0 95 95
+ 0.410381 0 1 poisson 500 ------- 0 0.0 1.0 178 178
- 0.410516 0 1 poisson 500 ------- 0 0.0 1.0 99 99
r 0.412516 0 1 poisson 500 ------- 0 0.0 1.0 96 96
- 0.414516 0 1 poisson 500 ------- 0 0.0 1.0 100 100
+ 0.41617 0 1 poisson 500 ------- 0 0.0 1.0 179 179
+ 0.416264 0 1 poisson 500 ------- 0 0.0 1.0 180 180
r 0.416516 0 1 poisson 500 ------- 0 0.0 1.0 97 97
+ 0.416656 0 1 poisson 500 ------- 0 0.0 1.0 181 181
d 0.416656 0 1 poisson 500 ------- 0 0.0 1.0 181 181
+ 0.417345 0 1 poisson 500 ------- 0 0.0 1.0 182 182
d 0.417345 0 1 poisson 500 ------- 0 0.0 1.0 182 182
- 0.418516 0 1 poisson 500 ------- 0 0.0 1.0 101 101
+ 0.419032 0 1 poisson 500 ------- 0 0.0 1.0 183 183
+ 0.419404 0 1 poisson 500 ------- 0 0.0 1.0 184 184
d 0.419404 0 1 poisson 500 ------- 0 0.0 1.0 184 184
r 0.420516 0 1 poisson 500 ------- 0 0.0 1.0 98 98
+ 0.421273 0 1 poisson 500 ------- 0 0.0 1.0 185 185
d 0.421273 0 1 poisson 500 ------- 0 0.0 1.0 185 185
+ 0.422492 0 1 poisson 500 ------- 0 0.0 1.0 186 186
d 0.422492 0 1 poisson 500 ------- 0 0.0 1.0 186 186
- 0.422516 0 1 poisson 500 ------- 0 0.0 1.0 102 102
r 0.424516 0 1 poisson 500 ------- 0 0.0 1.0 99 99
- 0.426516 0 1 poisson 500 ------- 0 0.0 1.0 103 103
+ 0.426575 0 1 poisson 500 ------- 0 0.0 1.0 187 187
+ 0.427664 0 1 poisson 500 ------- 0 0.0 1.0 188 188
r 0.428516 0 1 poisson 500 ------- 0 0.0 1.0 100 100
+ 0.429413 0 1 poisson 500 ------- 0 0.0 1.0 189 189
d 0.429413 0 1 poisson 500 ------- 0 0.0 1.0 189 189
+ 0.429793 0 1 poisson 500 ------- 0 0.0 1.0 190 190
d 0.429793 0 1 poisson 500 ------- 0 0.0 1.0 190 190
+ 0.430225 0 1 poisson 500 ------- 0 0.0 1.0 191 191
d 0.430225 0 1 poisson 500 ------- 0 0.0 1.0 191 191
- 0.430516 0 1 poisson 500 ------- 0 0.0 1.0 104 104
+ 0.430533 0 1 poisson 500 ------- 0 0.0 1.0 192 192
r 0.432516 0 1 poisson 500 ------- 0 0.0 1.0 101 101
- 0.434516 0 1 poisson 500 ------- 0 0.0 1.0 105 105
r 0.436516 0 1 poisson 500 ------- 0 0.0 1.0 102 102
- 0.438516 0 1 poisson 500 ------- 0 0.0 1.0 106 106
r 0.440516 0 1 poisson 500 ------- 0 0.0 1.0 103 103
+ 0.441827 0 1 poisson 500 ------- 0 0.0 1.0 193 193
+ 0.442289 0 1 poisson 500 ------- 0 0.0 1.0 194 194
- 0.442516 0 1 poisson 500 ------- 0 0.0 1.0 107 107
r 0.444516 0 1 poisson 500 ------- 0 0.0 1.0 104 104
- 0.446516 0 1 poisson 500 ------- 0 0.0 1.0 108 108
+ 0.447441 0 1 poisson 500 ------- 0 0.0 1.0 195 195
r 0.448516 0 1 poisson 500 ------- 0 0.0 1.0 105 105
- 0.450516 0 1 poisson 500 ------- 0 0.0 1.0 109 109
+ 0.450549 0 1 poisson 500 ------- 0 0.0 1.0 196 196
+ 0.450902 0 1 poisson 500 ------- 0 0.0 1.0 197 197
+ 0.452381 0 1 poisson 500 ------- 0 0.0 1.0 198 198
d 0.452381 0 1 poisson 500 ------- 0 0.0 1.0 198 198
r 0.452516 0 1 poisson 500 ------- 0 0.0 1.0 106 106
- 0.454516 0 1 poisson 500 ------- 0 0.0 1.0 110 110
+ 0.456057 0 1 poisson 500 ------- 0 0.0 1.0 199 199
r 0.456516 0 1 poisson 500 ------- 0 0.0 1.0 107 107
- 0.458516 0 1 poisson 500 ------- 0 0.0 1.0 111 111
+ 0.458678 0 1 poisson 500 ------- 0 0.0 1.0 200 200
r 0.460516 0 1 poisson 500 ------- 0 0.0 1.0 108 108
- 0.462516 0 1 poisson 500 ------- 0 0.0 1.0 112 112
r 0.464516 0 1 poisson 500 ------- 0 0.0 1.0 109 109
+ 0.466508 0 1 poisson 500 ------- 0 0.0 1.0 201 201
- 0.466516 0 1 poisson 500 ------- 0 0.0 1.0 113 113
+ 0.46721 0 1 poisson 500 ------- 0 0.0 1.0 202 202
r 0.468516 0 1 poisson 500 ------- 0 0.0 1.0 110 110
+ 0.468889 0 1 poisson 500 ------- 0 0.0 1.0 203 203
d 0.468889 0 1 poisson 500 ------- 0 0.0 1.0 203 203
+ 0.470326 0 1 poisson 500 ------- 0 0.0 1.0 204 204
d 0.470326 0 1 poisson 500 ------- 0 0.0 1.0 204 204
- 0.470516 0 1 poisson 500 ------- 0 0.0 1.0 114 114
r 0.472516 0 1 poisson 500 ------- 0 0.0 1.0 111 111
+ 0.472682 0 1 poisson 500 ------- 0 0.0 1.0 205 205
- 0.474516 0 1 poisson 500 ------- 0 0.0 1.0 115 115
r 0.476516 0 1 poisson 500 ------- 0 0.0 1.0 112 112
- 0.478516 0 1 poisson 500 ------- 0 0.0 1.0 116 116
r 0.480516 0 1 poisson 500 ------- 0 0.0 1.0 113 113
+ 0.482355 0 1 poisson 500 ------- 0 0.0 1.0 206 206
- 0.482516 0 1 poisson 500 ------- 0 0.0 1.0 118 118
+ 0.483097 0 1 poisson 500 ------- 0 0.0 1.0 207 207
r 0.484516 0 1 poisson 500 ------- 0 0.0 1.0 114 114
+ 0.485763 0 1 poisson 500 ------- 0 0.0 1.0 208 208
- 0.486516 0 1 poisson 500 ------- 0 0.0 1.0 121 121
+ 0.487277 0 1 poisson 500 ------- 0 0.0 1.0 209 209
+ 0.487491 0 1 poisson 500 ------- 0 0.0 1.0 210 210
d 0.487491 0 1 poisson 500 ------- 0 0.0 1.0 210 210
r 0.488516 0 1 poisson 500 ------- 0 0.0 1.0 115 115
+ 0.489572 0 1 poisson 500 ------- 0 0.0 1.0 211 211
d 0.489572 0 1 poisson 500 ------- 0 0.0 1.0 211 211
- 0.490516 0 1 poisson 500 ------- 0 0.0 1.0 125 125
+ 0.49105 0 1 poisson 500 ------- 0 0.0 1.0 212 212
r 0.492516 0 1 poisson 500 ------- 0 0.0 1.0 116 116
- 0.494516 0 1 poisson 500 ------- 0 0.0 1.0 127 127
r 0.496516 0 1 poisson 500 ------- 0 0.0 1.0 118 118
+ 0.497497 0 1 poisson 500 ------- 0 0.0 1.0 213 213
+ 0.497523 0 1 poisson 500 ------- 0 0.0 1.0 214 214
d 0.497523 0 1 poisson 500 ------- 0 0.0 1.0 214 214
- 0.498516 0 1 poisson 500 ------- 0 0.0 1.0 129 129
+ 0.499199 0 1 poisson 500 ------- 0 0.0 1.0 215 215
r 0.500516 0 1 poisson 500 ------- 0 0.0 1.0 121 121
+ 0.500565 0 1 poisson 500 ------- 0 0.0 1.0 216 216
d 0.500565 0 1 poisson 500 ------- 0 0.0 1.0 216 216
+ 0.501449 0 1 poisson 500 ------- 0 0.0 1.0 217 217
d 0.501449 0 1 poisson 500 ------- 0 0.0 1.0 217 217
- 0.502516 0 1 poisson 500 ------- 0 0.0 1.0 130 130
+ 0.503326 0 1 poisson 500 ------- 0 0.0 1.0 218 218
r 0.504516 0 1 poisson 500 ------- 0 0.0 1.0 125 125
+ 0.505898 0 1 poisson 500 ------- 0 0.0 1.0 219 219
d 0.505898 0 1 poisson 500 ------- 0 0.0 1.0 219 219
- 0.506516 0 1 poisson 500 ------- 0 0.0 1.0 131 131
+ 0.507967 0 1 poisson 500 ------- 0 0.0 1.0 220 220
+ 0.508073 0 1 poisson 500 ------- 0 0.0 1.0 221 221
d 0.508073 0 1 poisson 500 ------- 0 0.0 1.0 221 221
r 0.508516 0 1 poisson 500 ------- 0 0.0 1.0 127 127
- 0.510516 0 1 poisson 500 ------- 0 0.0 1.0 132 132
r 0.512516 0 1 poisson 500 ------- 0 0.0 1.0 129 129
- 0.514516 0 1 poisson 500 ------- 0 0.0 1.0 133 133
+ 0.514748 0 1 poisson 500 ------- 0 0.0 1.0 222 222
+ 0.515617 0 1 poisson 500 ------- 0 0.0 1.0 223 223
r 0.516516 0 1 poisson 500 ------- 0 0.0 1.0 130 130
- 0.518516 0 1 poisson 500 ------- 0 0.0 1.0 136 136
+ 0.519415 0 1 poisson 500 ------- 0 0.0 1.0 224 224
r 0.520516 0 1 poisson 500 ------- 0 0.0 1.0 131 131
+ 0.521036 0 1 poisson 500 ------- 0 0.0 1.0 225 225
d 0.521036 0 1 poisson 500 ------- 0 0.0 1.0 225 225
+ 0.521955 0 1 poisson 500 ------- 0 0.0 1.0 226 226
d 0.521955 0 1 poisson 500 ------- 0 0.0 1.0 226 226
- 0.522516 0 1 poisson 500 ------- 0 0.0 1.0 137 137
r 0.524516 0 1 poisson 500 ------- 0 0.0 1.0 132 132
+ 0.526029 0 1 poisson 500 ------- 0 0.0 1.0 227 227
- 0.526516 0 1 poisson 500 ------- 0 0.0 1.0 138 138
r 0.528516 0 1 poisson 500 ------- 0 0.0 1.0 133 133
- 0.530516 0 1 poisson 500 ------- 0 0.0 1.0 142 142
+ 0.531817 0 1 poisson 500 ------- 0 0.0 1.0 228 228
r 0.532516 0 1 poisson 500 ------- 0 0.0 1.0 136 136
+ 0.533139 0 1 poisson 500 ------- 0 0.0 1.0 229 229
- 0.534516 0 1 poisson 500 ------- 0 0.0 1.0 145 145
+ 0.535511 0 1 poisson 500 ------- 0 0.0 1.0 230 230
r 0.536516 0 1 poisson 500 ------- 0 0.0 1.0 137 137
+ 0.537724 0 1 poisson 500 ------- 0 0.0 1.0 231 231
d 0.537724 0 1 poisson 500 ------- 0 0.0 1.0 231 231
- 0.538516 0 1 poisson 500 ------- 0 0.0 1.0 149 149
+ 0.539685 0 1 poisson 500 ------- 0 0.0 1.0 232 232
r 0.540516 0 1 poisson 500 ------- 0 0.0 1.0 138 138
+ 0.541653 0 1 poisson 500 ------- 0 0.0 1.0 233 233
d 0.541653 0 1 poisson 500 ------- 0 0.0 1.0 233 233
+ 0.542158 0 1 poisson 500 ------- 0 0.0 1.0 234 234
d 0.542158 0 1 poisson 500 ------- 0 0.0 1.0 234 234
- 0.542516 0 1 poisson 500 ------- 0 0.0 1.0 152 152
+ 0.543855 0 1 poisson 500 ------- 0 0.0 1.0 235 235
r 0.544516 0 1 poisson 500 ------- 0 0.0 1.0 142 142
+ 0.545074 0 1 poisson 500 ------- 0 0.0 1.0 236 236
d 0.545074 0 1 poisson 500 ------- 0 0.0 1.0 236 236
+ 0.54542 0 1 poisson 500 ------- 0 0.0 1.0 237 237
d 0.54542 0 1 poisson 500 ------- 0 0.0 1.0 237 237
+ 0.54613 0 1 poisson 500 ------- 0 0.0 1.0 238 238
d 0.54613 0 1 poisson 500 ------- 0 0.0 1.0 238 238
- 0.546516 0 1 poisson 500 ------- 0 0.0 1.0 153 153
+ 0.547678 0 1 poisson 500 ------- 0 0.0 1.0 239 239
r 0.548516 0 1 poisson 500 ------- 0 0.0 1.0 145 145
+ 0.548985 0 1 poisson 500 ------- 0 0.0 1.0 240 240
d 0.548985 0 1 poisson 500 ------- 0 0.0 1.0 240 240
+ 0.549296 0 1 poisson 500 ------- 0 0.0 1.0 241 241
d 0.549296 0 1 poisson 500 ------- 0 0.0 1.0 241 241
+ 0.550384 0 1 poisson 500 ------- 0 0.0 1.0 242 242
d 0.550384 0 1 poisson 500 ------- 0 0.0 1.0 242 242
- 0.550516 0 1 poisson 500 ------- 0 0.0 1.0 158 158
+ 0.550542 0 1 poisson 500 ------- 0 0.0 1.0 243 243
r 0.552516 0 1 poisson 500 ------- 0 0.0 1.0 149 149
+ 0.553171 0 1 poisson 500 ------- 0 0.0 1.0 244 244
d 0.553171 0 1 poisson 500 ------- 0 0.0 1.0 244 244
- 0.554516 0 1 poisson 500 ------- 0 0.0 1.0 159 159
r 0.556516 0 1 poisson 500 ------- 0 0.0 1.0 152 152
- 0.558516 0 1 poisson 500 ------- 0 0.0 1.0 162 162
+ 0.558634 0 1 poisson 500 ------- 0 0.0 1.0 245 245
r 0.560516 0 1 poisson 500 ------- 0 0.0 1.0 153 153
+ 0.560959 0 1 poisson 500 ------- 0 0.0 1.0 246 246