+ 0 0 1 poisson 500 ------- 0 0.0 1.0 0 0
- 0 0 1 poisson 500 ------- 0 0.0 1.0 0 0
+ 0.01065 0 1 poisson 500 ------- 0 0.0 1.0 1 1
- 0.01065 0 1 poisson 500 ------- 0 0.0 1.0 1 1
+ 0.011433 0 1 poisson 500 ------- 0 0.0 1.0 2 2
r 0.014 0 1 poisson 500 ------- 0 0.0 1.0 0 0
- 0.01465 0 1 poisson 500 ------- 0 0.0 1.0 2 2
+ 0.017106 0 1 poisson 500 ------- 0 0.0 1.0 3 3
- 0.01865 0 1 poisson 500 ------- 0 0.0 1.0 3 3
+ 0.020344 0 1 poisson 500 ------- 0 0.0 1.0 4 4
+ 0.021435 0 1 poisson 500 ------- 0 0.0 1.0 5 5
+ 0.021734 0 1 poisson 500 ------- 0 0.0 1.0 6 6
- 0.02265 0 1 poisson 500 ------- 0 0.0 1.0 4 4
+ 0.023283 0 1 poisson 500 ------- 0 0.0 1.0 7 7
+ 0.023554 0 1 poisson 500 ------- 0 0.0 1.0 8 8
r 0.02465 0 1 poisson 500 ------- 0 0.0 1.0 1 1
+ 0.025487 0 1 poisson 500 ------- 0 0.0 1.0 9 9
+ 0.026084 0 1 poisson 500 ------- 0 0.0 1.0 10 10
- 0.02665 0 1 poisson 500 ------- 0 0.0 1.0 5 5
+ 0.02765 0 1 poisson 500 ------- 0 0.0 1.0 11 11
+ 0.027888 0 1 poisson 500 ------- 0 0.0 1.0 12 12
r 0.02865 0 1 poisson 500 ------- 0 0.0 1.0 2 2
+ 0.030297 0 1 poisson 500 ------- 0 0.0 1.0 13 13
- 0.03065 0 1 poisson 500 ------- 0 0.0 1.0 6 6
r 0.03265 0 1 poisson 500 ------- 0 0.0 1.0 3 3
+ 0.034499 0 1 poisson 500 ------- 0 0.0 1.0 14 14
- 0.03465 0 1 poisson 500 ------- 0 0.0 1.0 7 7
+ 0.035094 0 1 poisson 500 ------- 0 0.0 1.0 15 15
r 0.03665 0 1 poisson 500 ------- 0 0.0 1.0 4 4
+ 0.037992 0 1 poisson 500 ------- 0 0.0 1.0 16 16
+ 0.038193 0 1 poisson 500 ------- 0 0.0 1.0 17 17
- 0.03865 0 1 poisson 500 ------- 0 0.0 1.0 8 8
+ 0.039338 0 1 poisson 500 ------- 0 0.0 1.0 18 18
r 0.04065 0 1 poisson 500 ------- 0 0.0 1.0 5 5
+ 0.041664 0 1 poisson 500 ------- 0 0.0 1.0 19 19
- 0.04265 0 1 poisson 500 ------- 0 0.0 1.0 9 9
r 0.04465 0 1 poisson 500 ------- 0 0.0 1.0 6 6
+ 0.044814 0 1 poisson 500 ------- 0 0.0 1.0 20 20
+ 0.0451 0 1 poisson 500 ------- 0 0.0 1.0 21 21
+ 0.046505 0 1 poisson 500 ------- 0 0.0 1.0 22 22
- 0.04665 0 1 poisson 500 ------- 0 0.0 1.0 10 10
+ 0.048311 0 1 poisson 500 ------- 0 0.0 1.0 23 23
r 0.04865 0 1 poisson 500 ------- 0 0.0 1.0 7 7
+ 0.049504 0 1 poisson 500 ------- 0 0.0 1.0 24 24
+ 0.050379 0 1 poisson 500 ------- 0 0.0 1.0 25 25
- 0.05065 0 1 poisson 500 ------- 0 0.0 1.0 11 11
+ 0.051397 0 1 poisson 500 ------- 0 0.0 1.0 26 26
+ 0.051887 0 1 poisson 500 ------- 0 0.0 1.0 27 27
+ 0.052085 0 1 poisson 500 ------- 0 0.0 1.0 28 28
+ 0.052318 0 1 poisson 500 ------- 0 0.0 1.0 29 29
r 0.05265 0 1 poisson 500 ------- 0 0.0 1.0 8 8
+ 0.054354 0 1 poisson 500 ------- 0 0.0 1.0 30 30
- 0.05465 0 1 poisson 500 ------- 0 0.0 1.0 12 12
+ 0.05625 0 1 poisson 500 ------- 0 0.0 1.0 31 31
+ 0.056465 0 1 poisson 500 ------- 0 0.0 1.0 32 32
r 0.05665 0 1 poisson 500 ------- 0 0.0 1.0 9 9
+ 0.056985 0 1 poisson 500 ------- 0 0.0 1.0 33 33
+ 0.057347 0 1 poisson 500 ------- 0 0.0 1.0 34 34
+ 0.05748 0 1 poisson 500 ------- 0 0.0 1.0 35 35
- 0.05865 0 1 poisson 500 ------- 0 0.0 1.0 13 13
+ 0.058683 0 1 poisson 500 ------- 0 0.0 1.0 36 36
r 0.06065 0 1 poisson 500 ------- 0 0.0 1.0 10 10
+ 0.061636 0 1 poisson 500 ------- 0 0.0 1.0 37 37
- 0.06265 0 1 poisson 500 ------- 0 0.0 1.0 14 14
+ 0.062844 0 1 poisson 500 ------- 0 0.0 1.0 38 38
r 0.06465 0 1 poisson 500 ------- 0 0.0 1.0 11 11
+ 0.065077 0 1 poisson 500 ------- 0 0.0 1.0 39 39
+ 0.065236 0 1 poisson 500 ------- 0 0.0 1.0 40 40
+ 0.065309 0 1 poisson 500 ------- 0 0.0 1.0 41 41
+ 0.065463 0 1 poisson 500 ------- 0 0.0 1.0 42 42
- 0.06665 0 1 poisson 500 ------- 0 0.0 1.0 15 15
+ 0.068381 0 1 poisson 500 ------- 0 0.0 1.0 43 43
r 0.06865 0 1 poisson 500 ------- 0 0.0 1.0 12 12
- 0.07065 0 1 poisson 500 ------- 0 0.0 1.0 16 16
+ 0.072169 0 1 poisson 500 ------- 0 0.0 1.0 44 44
r 0.07265 0 1 poisson 500 ------- 0 0.0 1.0 13 13
- 0.07465 0 1 poisson 500 ------- 0 0.0 1.0 17 17
r 0.07665 0 1 poisson 500 ------- 0 0.0 1.0 14 14
+ 0.078205 0 1 poisson 500 ------- 0 0.0 1.0 45 45
- 0.07865 0 1 poisson 500 ------- 0 0.0 1.0 18 18
+ 0.078897 0 1 poisson 500 ------- 0 0.0 1.0 46 46
+ 0.080353 0 1 poisson 500 ------- 0 0.0 1.0 47 47
r 0.08065 0 1 poisson 500 ------- 0 0.0 1.0 15 15
- 0.08265 0 1 poisson 500 ------- 0 0.0 1.0 19 19
+ 0.083146 0 1 poisson 500 ------- 0 0.0 1.0 48 48
+ 0.083683 0 1 poisson 500 ------- 0 0.0 1.0 49 49
r 0.08465 0 1 poisson 500 ------- 0 0.0 1.0 16 16
+ 0.085494 0 1 poisson 500 ------- 0 0.0 1.0 50 50
+ 0.085972 0 1 poisson 500 ------- 0 0.0 1.0 51 51
- 0.08665 0 1 poisson 500 ------- 0 0.0 1.0 20 20
+ 0.086782 0 1 poisson 500 ------- 0 0.0 1.0 52 52
+ 0.086958 0 1 poisson 500 ------- 0 0.0 1.0 53 53
r 0.08865 0 1 poisson 500 ------- 0 0.0 1.0 17 17
+ 0.088744 0 1 poisson 500 ------- 0 0.0 1.0 54 54
+ 0.08953 0 1 poisson 500 ------- 0 0.0 1.0 55 55
- 0.09065 0 1 poisson 500 ------- 0 0.0 1.0 21 21
+ 0.090669 0 1 poisson 500 ------- 0 0.0 1.0 56 56
r 0.09265 0 1 poisson 500 ------- 0 0.0 1.0 18 18
- 0.09465 0 1 poisson 500 ------- 0 0.0 1.0 22 22
+ 0.095457 0 1 poisson 500 ------- 0 0.0 1.0 57 57
r 0.09665 0 1 poisson 500 ------- 0 0.0 1.0 19 19
+ 0.096946 0 1 poisson 500 ------- 0 0.0 1.0 58 58
- 0.09865 0 1 poisson 500 ------- 0 0.0 1.0 23 23
+ 0.099187 0 1 poisson 500 ------- 0 0.0 1.0 59 59
+ 0.09951 0 1 poisson 500 ------- 0 0.0 1.0 60 60
+ 0.099583 0 1 poisson 500 ------- 0 0.0 1.0 61 61
+ 0.099927 0 1 poisson 500 ------- 0 0.0 1.0 62 62
r 0.10065 0 1 poisson 500 ------- 0 0.0 1.0 20 20
+ 0.102029 0 1 poisson 500 ------- 0 0.0 1.0 63 63
+ 0.102514 0 1 poisson 500 ------- 0 0.0 1.0 64 64
- 0.10265 0 1 poisson 500 ------- 0 0.0 1.0 24 24
r 0.10465 0 1 poisson 500 ------- 0 0.0 1.0 21 21
+ 0.10481 0 1 poisson 500 ------- 0 0.0 1.0 65 65
+ 0.104842 0 1 poisson 500 ------- 0 0.0 1.0 66 66
- 0.10665 0 1 poisson 500 ------- 0 0.0 1.0 25 25
+ 0.108033 0 1 poisson 500 ------- 0 0.0 1.0 67 67
r 0.10865 0 1 poisson 500 ------- 0 0.0 1.0 22 22
+ 0.108979 0 1 poisson 500 ------- 0 0.0 1.0 68 68
- 0.11065 0 1 poisson 500 ------- 0 0.0 1.0 26 26
r 0.11265 0 1 poisson 500 ------- 0 0.0 1.0 23 23
+ 0.11297 0 1 poisson 500 ------- 0 0.0 1.0 69 69
+ 0.113163 0 1 poisson 500 ------- 0 0.0 1.0 70 70
+ 0.114002 0 1 poisson 500 ------- 0 0.0 1.0 71 71
+ 0.114413 0 1 poisson 500 ------- 0 0.0 1.0 72 72
- 0.11465 0 1 poisson 500 ------- 0 0.0 1.0 27 27
+ 0.115566 0 1 poisson 500 ------- 0 0.0 1.0 73 73
r 0.11665 0 1 poisson 500 ------- 0 0.0 1.0 24 24
- 0.11865 0 1 poisson 500 ------- 0 0.0 1.0 28 28
+ 0.118803 0 1 poisson 500 ------- 0 0.0 1.0 74 74
+ 0.119077 0 1 poisson 500 ------- 0 0.0 1.0 75 75
+ 0.119213 0 1 poisson 500 ------- 0 0.0 1.0 76 76
+ 0.119636 0 1 poisson 500 ------- 0 0.0 1.0 77 77
+ 0.119815 0 1 poisson 500 ------- 0 0.0 1.0 78 78
d 0.119815 0 1 poisson 500 ------- 0 0.0 1.0 78 78
+ 0.120527 0 1 poisson 500 ------- 0 0.0 1.0 79 79
d 0.120527 0 1 poisson 500 ------- 0 0.0 1.0 79 79
r 0.12065 0 1 poisson 500 ------- 0 0.0 1.0 25 25
+ 0.120936 0 1 poisson 500 ------- 0 0.0 1.0 80 80
d 0.120936 0 1 poisson 500 ------- 0 0.0 1.0 80 80
+ 0.12123 0 1 poisson 500 ------- 0 0.0 1.0 81 81
d 0.12123 0 1 poisson 500 ------- 0 0.0 1.0 81 81
+ 0.122607 0 1 poisson 500 ------- 0 0.0 1.0 82 82
d 0.122607 0 1 poisson 500 ------- 0 0.0 1.0 82 82
- 0.12265 0 1 poisson 500 ------- 0 0.0 1.0 29 29
+ 0.123384 0 1 poisson 500 ------- 0 0.0 1.0 83 83
+ 0.123656 0 1 poisson 500 ------- 0 0.0 1.0 84 84
d 0.123656 0 1 poisson 500 ------- 0 0.0 1.0 84 84
+ 0.123981 0 1 poisson 500 ------- 0 0.0 1.0 85 85
d 0.123981 0 1 poisson 500 ------- 0 0.0 1.0 85 85
+ 0.124528 0 1 poisson 500 ------- 0 0.0 1.0 86 86
d 0.124528 0 1 poisson 500 ------- 0 0.0 1.0 86 86
r 0.12465 0 1 poisson 500 ------- 0 0.0 1.0 26 26
- 0.12665 0 1 poisson 500 ------- 0 0.0 1.0 30 30
+ 0.127057 0 1 poisson 500 ------- 0 0.0 1.0 87 87
+ 0.128258 0 1 poisson 500 ------- 0 0.0 1.0 88 88
d 0.128258 0 1 poisson 500 ------- 0 0.0 1.0 88 88
r 0.12865 0 1 poisson 500 ------- 0 0.0 1.0 27 27
+ 0.129065 0 1 poisson 500 ------- 0 0.0 1.0 89 89
d 0.129065 0 1 poisson 500 ------- 0 0.0 1.0 89 89
+ 0.130377 0 1 poisson 500 ------- 0 0.0 1.0 90 90
d 0.130377 0 1 poisson 500 ------- 0 0.0 1.0 90 90
- 0.13065 0 1 poisson 500 ------- 0 0.0 1.0 31 31
r 0.13265 0 1 poisson 500 ------- 0 0.0 1.0 28 28
- 0.13465 0 1 poisson 500 ------- 0 0.0 1.0 32 32
r 0.13665 0 1 poisson 500 ------- 0 0.0 1.0 29 29
- 0.13865 0 1 poisson 500 ------- 0 0.0 1.0 33 33
r 0.14065 0 1 poisson 500 ------- 0 0.0 1.0 30 30
+ 0.141915 0 1 poisson 500 ------- 0 0.0 1.0 91 91
- 0.14265 0 1 poisson 500 ------- 0 0.0 1.0 34 34
r 0.14465 0 1 poisson 500 ------- 0 0.0 1.0 31 31
+ 0.145227 0 1 poisson 500 ------- 0 0.0 1.0 92 92
- 0.14665 0 1 poisson 500 ------- 0 0.0 1.0 35 35
+ 0.146696 0 1 poisson 500 ------- 0 0.0 1.0 93 93
+ 0.14718 0 1 poisson 500 ------- 0 0.0 1.0 94 94
+ 0.147303 0 1 poisson 500 ------- 0 0.0 1.0 95 95
r 0.14865 0 1 poisson 500 ------- 0 0.0 1.0 32 32
- 0.15065 0 1 poisson 500 ------- 0 0.0 1.0 36 36
+ 0.151859 0 1 poisson 500 ------- 0 0.0 1.0 96 96
r 0.15265 0 1 poisson 500 ------- 0 0.0 1.0 33 33
+ 0.153202 0 1 poisson 500 ------- 0 0.0 1.0 97 97
d 0.153202 0 1 poisson 500 ------- 0 0.0 1.0 97 97
- 0.15465 0 1 poisson 500 ------- 0 0.0 1.0 37 37
+ 0.154786 0 1 poisson 500 ------- 0 0.0 1.0 98 98
r 0.15665 0 1 poisson 500 ------- 0 0.0 1.0 34 34
- 0.15865 0 1 poisson 500 ------- 0 0.0 1.0 38 38
r 0.16065 0 1 poisson 500 ------- 0 0.0 1.0 35 35
+ 0.162384 0 1 poisson 500 ------- 0 0.0 1.0 99 99
- 0.16265 0 1 poisson 500 ------- 0 0.0 1.0 39 39
+ 0.163896 0 1 poisson 500 ------- 0 0.0 1.0 100 100
+ 0.164065 0 1 poisson 500 ------- 0 0.0 1.0 101 101
d 0.164065 0 1 poisson 500 ------- 0 0.0 1.0 101 101
+ 0.164235 0 1 poisson 500 ------- 0 0.0 1.0 102 102
d 0.164235 0 1 poisson 500 ------- 0 0.0 1.0 102 102
+ 0.164523 0 1 poisson 500 ------- 0 0.0 1.0 103 103
d 0.164523 0 1 poisson 500 ------- 0 0.0 1.0 103 103
r 0.16465 0 1 poisson 500 ------- 0 0.0 1.0 36 36
- 0.16665 0 1 poisson 500 ------- 0 0.0 1.0 40 40
+ 0.166876 0 1 poisson 500 ------- 0 0.0 1.0 104 104
r 0.16865 0 1 poisson 500 ------- 0 0.0 1.0 37 37
- 0.17065 0 1 poisson 500 ------- 0 0.0 1.0 41 41
+ 0.171468 0 1 poisson 500 ------- 0 0.0 1.0 105 105
+ 0.171842 0 1 poisson 500 ------- 0 0.0 1.0 106 106
d 0.171842 0 1 poisson 500 ------- 0 0.0 1.0 106 106
+ 0.172489 0 1 poisson 500 ------- 0 0.0 1.0 107 107
d 0.172489 0 1 poisson 500 ------- 0 0.0 1.0 107 107
r 0.17265 0 1 poisson 500 ------- 0 0.0 1.0 38 38
+ 0.172804 0 1 poisson 500 ------- 0 0.0 1.0 108 108
d 0.172804 0 1 poisson 500 ------- 0 0.0 1.0 108 108
+ 0.173674 0 1 poisson 500 ------- 0 0.0 1.0 109 109
d 0.173674 0 1 poisson 500 ------- 0 0.0 1.0 109 109
- 0.17465 0 1 poisson 500 ------- 0 0.0 1.0 42 42
+ 0.174735 0 1 poisson 500 ------- 0 0.0 1.0 110 110
r 0.17665 0 1 poisson 500 ------- 0 0.0 1.0 39 39
+ 0.176831 0 1 poisson 500 ------- 0 0.0 1.0 111 111
d 0.176831 0 1 poisson 500 ------- 0 0.0 1.0 111 111
- 0.17865 0 1 poisson 500 ------- 0 0.0 1.0 43 43
r 0.18065 0 1 poisson 500 ------- 0 0.0 1.0 40 40
+ 0.182345 0 1 poisson 500 ------- 0 0.0 1.0 112 112
- 0.18265 0 1 poisson 500 ------- 0 0.0 1.0 44 44
+ 0.18344 0 1 poisson 500 ------- 0 0.0 1.0 113 113
+ 0.184543 0 1 poisson 500 ------- 0 0.0 1.0 114 114
d 0.184543 0 1 poisson 500 ------- 0 0.0 1.0 114 114
r 0.18465 0 1 poisson 500 ------- 0 0.0 1.0 41 41
+ 0.186017 0 1 poisson 500 ------- 0 0.0 1.0 115 115
d 0.186017 0 1 poisson 500 ------- 0 0.0 1.0 115 115
- 0.18665 0 1 poisson 500 ------- 0 0.0 1.0 45 45
r 0.18865 0 1 poisson 500 ------- 0 0.0 1.0 42 42
+ 0.188853 0 1 poisson 500 ------- 0 0.0 1.0 116 116
+ 0.188994 0 1 poisson 500 ------- 0 0.0 1.0 117 117
d 0.188994 0 1 poisson 500 ------- 0 0.0 1.0 117 117
- 0.19065 0 1 poisson 500 ------- 0 0.0 1.0 46 46
+ 0.191049 0 1 poisson 500 ------- 0 0.0 1.0 118 118
+ 0.192173 0 1 poisson 500 ------- 0 0.0 1.0 119 119
d 0.192173 0 1 poisson 500 ------- 0 0.0 1.0 119 119
r 0.19265 0 1 poisson 500 ------- 0 0.0 1.0 43 43
+ 0.19332 0 1 poisson 500 ------- 0 0.0 1.0 120 120
d 0.19332 0 1 poisson 500 ------- 0 0.0 1.0 120 120
+ 0.194517 0 1 poisson 500 ------- 0 0.0 1.0 121 121
d 0.194517 0 1 poisson 500 ------- 0 0.0 1.0 121 121
- 0.19465 0 1 poisson 500 ------- 0 0.0 1.0 47 47
+ 0.194927 0 1 poisson 500 ------- 0 0.0 1.0 122 122
+ 0.195892 0 1 poisson 500 ------- 0 0.0 1.0 123 123
d 0.195892 0 1 poisson 500 ------- 0 0.0 1.0 123 123
+ 0.196037 0 1 poisson 500 ------- 0 0.0 1.0 124 124
d 0.196037 0 1 poisson 500 ------- 0 0.0 1.0 124 124
r 0.19665 0 1 poisson 500 ------- 0 0.0 1.0 44 44
+ 0.196668 0 1 poisson 500 ------- 0 0.0 1.0 125 125
d 0.196668 0 1 poisson 500 ------- 0 0.0 1.0 125 125
+ 0.196884 0 1 poisson 500 ------- 0 0.0 1.0 126 126
d 0.196884 0 1 poisson 500 ------- 0 0.0 1.0 126 126
- 0.19865 0 1 poisson 500 ------- 0 0.0 1.0 48 48
+ 0.19934 0 1 poisson 500 ------- 0 0.0 1.0 127 127
r 0.20065 0 1 poisson 500 ------- 0 0.0 1.0 45 45
+ 0.201268 0 1 poisson 500 ------- 0 0.0 1.0 128 128
d 0.201268 0 1 poisson 500 ------- 0 0.0 1.0 128 128
- 0.20265 0 1 poisson 500 ------- 0 0.0 1.0 49 49
r 0.20465 0 1 poisson 500 ------- 0 0.0 1.0 46 46
+ 0.204923 0 1 poisson 500 ------- 0 0.0 1.0 129 129
- 0.20665 0 1 poisson 500 ------- 0 0.0 1.0 50 50
+ 0.207234 0 1 poisson 500 ------- 0 0.0 1.0 130 130
+ 0.207417 0 1 poisson 500 ------- 0 0.0 1.0 131 131
d 0.207417 0 1 poisson 500 ------- 0 0.0 1.0 131 131
r 0.20865 0 1 poisson 500 ------- 0 0.0 1.0 47 47
- 0.21065 0 1 poisson 500 ------- 0 0.0 1.0 51 51
+ 0.211726 0 1 poisson 500 ------- 0 0.0 1.0 132 132
+ 0.212456 0 1 poisson 500 ------- 0 0.0 1.0 133 133
d 0.212456 0 1 poisson 500 ------- 0 0.0 1.0 133 133
r 0.21265 0 1 poisson 500 ------- 0 0.0 1.0 48 48
+ 0.212919 0 1 poisson 500 ------- 0 0.0 1.0 134 134
d 0.212919 0 1 poisson 500 ------- 0 0.0 1.0 134 134
- 0.21465 0 1 poisson 500 ------- 0 0.0 1.0 52 52
+ 0.214898 0 1 poisson 500 ------- 0 0.0 1.0 135 135
+ 0.215146 0 1 poisson 500 ------- 0 0.0 1.0 136 136
d 0.215146 0 1 poisson 500 ------- 0 0.0 1.0 136 136
r 0.21665 0 1 poisson 500 ------- 0 0.0 1.0 49 49
- 0.21865 0 1 poisson 500 ------- 0 0.0 1.0 53 53
+ 0.218926 0 1 poisson 500 ------- 0 0.0 1.0 137 137
+ 0.220365 0 1 poisson 500 ------- 0 0.0 1.0 138 138
d 0.220365 0 1 poisson 500 ------- 0 0.0 1.0 138 138
r 0.22065 0 1 poisson 500 ------- 0 0.0 1.0 50 50
+ 0.220672 0 1 poisson 500 ------- 0 0.0 1.0 139 139
d 0.220672 0 1 poisson 500 ------- 0 0.0 1.0 139 139
+ 0.221273 0 1 poisson 500 ------- 0 0.0 1.0 140 140
d 0.221273 0 1 poisson 500 ------- 0 0.0 1.0 140 140
+ 0.222388 0 1 poisson 500 ------- 0 0.0 1.0 141 141
d 0.222388 0 1 poisson 500 ------- 0 0.0 1.0 141 141
- 0.22265 0 1 poisson 500 ------- 0 0.0 1.0 54 54
+ 0.224354 0 1 poisson 500 ------- 0 0.0 1.0 142 142
r 0.22465 0 1 poisson 500 ------- 0 0.0 1.0 51 51
+ 0.225443 0 1 poisson 500 ------- 0 0.0 1.0 143 143
d 0.225443 0 1 poisson 500 ------- 0 0.0 1.0 143 143
+ 0.225525 0 1 poisson 500 ------- 0 0.0 1.0 144 144
d 0.225525 0 1 poisson 500 ------- 0 0.0 1.0 144 144
+ 0.226561 0 1 poisson 500 ------- 0 0.0 1.0 145 145
d 0.226561 0 1 poisson 500 ------- 0 0.0 1.0 145 145
- 0.22665 0 1 poisson 500 ------- 0 0.0 1.0 55 55
+ 0.226699 0 1 poisson 500 ------- 0 0.0 1.0 146 146
+ 0.226757 0 1 poisson 500 ------- 0 0.0 1.0 147 147
d 0.226757 0 1 poisson 500 ------- 0 0.0 1.0 147 147
+ 0.226889 0 1 poisson 500 ------- 0 0.0 1.0 148 148
d 0.226889 0 1 poisson 500 ------- 0 0.0 1.0 148 148
r 0.22865 0 1 poisson 500 ------- 0 0.0 1.0 52 52
+ 0.229402 0 1 poisson 500 ------- 0 0.0 1.0 149 149
d 0.229402 0 1 poisson 500 ------- 0 0.0 1.0 149 149
+ 0.229478 0 1 poisson 500 ------- 0 0.0 1.0 150 150
d 0.229478 0 1 poisson 500 ------- 0 0.0 1.0 150 150
+ 0.230299 0 1 poisson 500 ------- 0 0.0 1.0 151 151
d 0.230299 0 1 poisson 500 ------- 0 0.0 1.0 151 151
- 0.23065 0 1 poisson 500 ------- 0 0.0 1.0 56 56
+ 0.231132 0 1 poisson 500 ------- 0 0.0 1.0 152 152
r 0.23265 0 1 poisson 500 ------- 0 0.0 1.0 53 53
- 0.23465 0 1 poisson 500 ------- 0 0.0 1.0 57 57
+ 0.234746 0 1 poisson 500 ------- 0 0.0 1.0 153 153
+ 0.234784 0 1 poisson 500 ------- 0 0.0 1.0 154 154
d 0.234784 0 1 poisson 500 ------- 0 0.0 1.0 154 154
+ 0.235661 0 1 poisson 500 ------- 0 0.0 1.0 155 155
d 0.235661 0 1 poisson 500 ------- 0 0.0 1.0 155 155
+ 0.23583 0 1 poisson 500 ------- 0 0.0 1.0 156 156
d 0.23583 0 1 poisson 500 ------- 0 0.0 1.0 156 156
+ 0.23625 0 1 poisson 500 ------- 0 0.0 1.0 157 157
d 0.23625 0 1 poisson 500 ------- 0 0.0 1.0 157 157
r 0.23665 0 1 poisson 500 ------- 0 0.0 1.0 54 54
+ 0.238032 0 1 poisson 500 ------- 0 0.0 1.0 158 158
d 0.238032 0 1 poisson 500 ------- 0 0.0 1.0 158 158
- 0.23865 0 1 poisson 500 ------- 0 0.0 1.0 58 58
+ 0.239012 0 1 poisson 500 ------- 0 0.0 1.0 159 159
+ 0.239396 0 1 poisson 500 ------- 0 0.0 1.0 160 160
d 0.239396 0 1 poisson 500 ------- 0 0.0 1.0 160 160
r 0.24065 0 1 poisson 500 ------- 0 0.0 1.0 55 55
+ 0.241503 0 1 poisson 500 ------- 0 0.0 1.0 161 161
d 0.241503 0 1 poisson 500 ------- 0 0.0 1.0 161 161
+ 0.242026 0 1 poisson 500 ------- 0 0.0 1.0 162 162
d 0.242026 0 1 poisson 500 ------- 0 0.0 1.0 162 162
+ 0.242586 0 1 poisson 500 ------- 0 0.0 1.0 163 163
d 0.242586 0 1 poisson 500 ------- 0 0.0 1.0 163 163
- 0.24265 0 1 poisson 500 ------- 0 0.0 1.0 59 59
r 0.24465 0 1 poisson 500 ------- 0 0.0 1.0 56 56
+ 0.245014 0 1 poisson 500 ------- 0 0.0 1.0 164 164
- 0.24665 0 1 poisson 500 ------- 0 0.0 1.0 60 60
+ 0.246786 0 1 poisson 500 ------- 0 0.0 1.0 165 165
+ 0.248081 0 1 poisson 500 ------- 0 0.0 1.0 166 166
d 0.248081 0 1 poisson 500 ------- 0 0.0 1.0 166 166
r 0.24865 0 1 poisson 500 ------- 0 0.0 1.0 57 57
+ 0.248736 0 1 poisson 500 ------- 0 0.0 1.0 167 167
d 0.248736 0 1 poisson 500 ------- 0 0.0 1.0 167 167
+ 0.249299 0 1 poisson 500 ------- 0 0.0 1.0 168 168
d 0.249299 0 1 poisson 500 ------- 0 0.0 1.0 168 168
+ 0.249509 0 1 poisson 500 ------- 0 0.0 1.0 169 169
d 0.249509 0 1 poisson 500 ------- 0 0.0 1.0 169 169
- 0.25065 0 1 poisson 500 ------- 0 0.0 1.0 61 61
+ 0.251204 0 1 poisson 500 ------- 0 0.0 1.0 170 170
r 0.25265 0 1 poisson 500 ------- 0 0.0 1.0 58 58
+ 0.253595 0 1 poisson 500 ------- 0 0.0 1.0 171 171
d 0.253595 0 1 poisson 500 ------- 0 0.0 1.0 171 171
- 0.25465 0 1 poisson 500 ------- 0 0.0 1.0 62 62
+ 0.255789 0 1 poisson 500 ------- 0 0.0 1.0 172 172
r 0.25665 0 1 poisson 500 ------- 0 0.0 1.0 59 59
- 0.25865 0 1 poisson 500 ------- 0 0.0 1.0 63 63
+ 0.26003 0 1 poisson 500 ------- 0 0.0 1.0 173 173
r 0.26065 0 1 poisson 500 ------- 0 0.0 1.0 60 60
- 0.26265 0 1 poisson 500 ------- 0 0.0 1.0 64 64
+ 0.263441 0 1 poisson 500 ------- 0 0.0 1.0 174 174
r 0.26465 0 1 poisson 500 ------- 0 0.0 1.0 61 61
+ 0.266275 0 1 poisson 500 ------- 0 0.0 1.0 175 175
d 0.266275 0 1 poisson 500 ------- 0 0.0 1.0 175 175
- 0.26665 0 1 poisson 500 ------- 0 0.0 1.0 65 65
r 0.26865 0 1 poisson 500 ------- 0 0.0 1.0 62 62
+ 0.270169 0 1 poisson 500 ------- 0 0.0 1.0 176 176
- 0.27065 0 1 poisson 500 ------- 0 0.0 1.0 66 66
+ 0.271534 0 1 poisson 500 ------- 0 0.0 1.0 177 177
r 0.27265 0 1 poisson 500 ------- 0 0.0 1.0 63 63
+ 0.273588 0 1 poisson 500 ------- 0 0.0 1.0 178 178
d 0.273588 0 1 poisson 500 ------- 0 0.0 1.0 178 178
- 0.27465 0 1 poisson 500 ------- 0 0.0 1.0 67 67
r 0.27665 0 1 poisson 500 ------- 0 0.0 1.0 64 64
+ 0.277446 0 1 poisson 500 ------- 0 0.0 1.0 179 179
+ 0.277509 0 1 poisson 500 ------- 0 0.0 1.0 180 180
d 0.277509 0 1 poisson 500 ------- 0 0.0 1.0 180 180
+ 0.27777 0 1 poisson 500 ------- 0 0.0 1.0 181 181
d 0.27777 0 1 poisson 500 ------- 0 0.0 1.0 181 181
+ 0.27823 0 1 poisson 500 ------- 0 0.0 1.0 182 182
d 0.27823 0 1 poisson 500 ------- 0 0.0 1.0 182 182
- 0.27865 0 1 poisson 500 ------- 0 0.0 1.0 68 68
+ 0.279354 0 1 poisson 500 ------- 0 0.0 1.0 183 183
+ 0.279603 0 1 poisson 500 ------- 0 0.0 1.0 184 184
d 0.279603 0 1 poisson 500 ------- 0 0.0 1.0 184 184
r 0.28065 0 1 poisson 500 ------- 0 0.0 1.0 65 65
+ 0.280849 0 1 poisson 500 ------- 0 0.0 1.0 185 185
d 0.280849 0 1 poisson 500 ------- 0 0.0 1.0 185 185
+ 0.281662 0 1 poisson 500 ------- 0 0.0 1.0 186 186
d 0.281662 0 1 poisson 500 ------- 0 0.0 1.0 186 186
- 0.28265 0 1 poisson 500 ------- 0 0.0 1.0 69 69
+ 0.284384 0 1 poisson 500 ------- 0 0.0 1.0 187 187
r 0.28465 0 1 poisson 500 ------- 0 0.0 1.0 66 66
+ 0.285109 0 1 poisson 500 ------- 0 0.0 1.0 188 188
d 0.285109 0 1 poisson 500 ------- 0 0.0 1.0 188 188
+ 0.286275 0 1 poisson 500 ------- 0 0.0 1.0 189 189
d 0.286275 0 1 poisson 500 ------- 0 0.0 1.0 189 189
+ 0.286529 0 1 poisson 500 ------- 0 0.0 1.0 190 190
d 0.286529 0 1 poisson 500 ------- 0 0.0 1.0 190 190
- 0.28665 0 1 poisson 500 ------- 0 0.0 1.0 70 70
+ 0.286817 0 1 poisson 500 ------- 0 0.0 1.0 191 191
+ 0.287022 0 1 poisson 500 ------- 0 0.0 1.0 192 192
d 0.287022 0 1 poisson 500 ------- 0 0.0 1.0 192 192
r 0.28865 0 1 poisson 500 ------- 0 0.0 1.0 67 67
- 0.29065 0 1 poisson 500 ------- 0 0.0 1.0 71 71
r 0.29265 0 1 poisson 500 ------- 0 0.0 1.0 68 68
+ 0.294551 0 1 poisson 500 ------- 0 0.0 1.0 193 193
- 0.29465 0 1 poisson 500 ------- 0 0.0 1.0 72 72
+ 0.294859 0 1 poisson 500 ------- 0 0.0 1.0 194 194
r 0.29665 0 1 poisson 500 ------- 0 0.0 1.0 69 69
+ 0.298294 0 1 poisson 500 ------- 0 0.0 1.0 195 195
d 0.298294 0 1 poisson 500 ------- 0 0.0 1.0 195 195
- 0.29865 0 1 poisson 500 ------- 0 0.0 1.0 73 73
+ 0.300366 0 1 poisson 500 ------- 0 0.0 1.0 196 196
+ 0.300601 0 1 poisson 500 ------- 0 0.0 1.0 197 197
d 0.300601 0 1 poisson 500 ------- 0 0.0 1.0 197 197
r 0.30065 0 1 poisson 500 ------- 0 0.0 1.0 70 70
+ 0.301588 0 1 poisson 500 ------- 0 0.0 1.0 198 198
d 0.301588 0 1 poisson 500 ------- 0 0.0 1.0 198 198
- 0.30265 0 1 poisson 500 ------- 0 0.0 1.0 74 74
+ 0.304038 0 1 poisson 500 ------- 0 0.0 1.0 199 199
r 0.30465 0 1 poisson 500 ------- 0 0.0 1.0 71 71
+ 0.305785 0 1 poisson 500 ------- 0 0.0 1.0 200 200
d 0.305785 0 1 poisson 500 ------- 0 0.0 1.0 200 200
- 0.30665 0 1 poisson 500 ------- 0 0.0 1.0 75 75
r 0.30865 0 1 poisson 500 ------- 0 0.0 1.0 72 72
- 0.31065 0 1 poisson 500 ------- 0 0.0 1.0 76 76
+ 0.311006 0 1 poisson 500 ------- 0 0.0 1.0 201 201
+ 0.311473 0 1 poisson 500 ------- 0 0.0 1.0 202 202
+ 0.312593 0 1 poisson 500 ------- 0 0.0 1.0 203 203
d 0.312593 0 1 poisson 500 ------- 0 0.0 1.0 203 203
r 0.31265 0 1 poisson 500 ------- 0 0.0 1.0 73 73
+ 0.313551 0 1 poisson 500 ------- 0 0.0 1.0 204 204
d 0.313551 0 1 poisson 500 ------- 0 0.0 1.0 204 204
- 0.31465 0 1 poisson 500 ------- 0 0.0 1.0 77 77
+ 0.315121 0 1 poisson 500 ------- 0 0.0 1.0 205 205
r 0.31665 0 1 poisson 500 ------- 0 0.0 1.0 74 74
- 0.31865 0 1 poisson 500 ------- 0 0.0 1.0 83 83
r 0.32065 0 1 poisson 500 ------- 0 0.0 1.0 75 75
+ 0.32157 0 1 poisson 500 ------- 0 0.0 1.0 206 206
+ 0.322065 0 1 poisson 500 ------- 0 0.0 1.0 207 207
d 0.322065 0 1 poisson 500 ------- 0 0.0 1.0 207 207
- 0.32265 0 1 poisson 500 ------- 0 0.0 1.0 87 87
+ 0.323842 0 1 poisson 500 ------- 0 0.0 1.0 208 208
r 0.32465 0 1 poisson 500 ------- 0 0.0 1.0 76 76
+ 0.324851 0 1 poisson 500 ------- 0 0.0 1.0 209 209
d 0.324851 0 1 poisson 500 ------- 0 0.0 1.0 209 209
+ 0.324994 0 1 poisson 500 ------- 0 0.0 1.0 210 210
d 0.324994 0 1 poisson 500 ------- 0 0.0 1.0 210 210
+ 0.326381 0 1 poisson 500 ------- 0 0.0 1.0 211 211
d 0.326381 0 1 poisson 500 ------- 0 0.0 1.0 211 211
- 0.32665 0 1 poisson 500 ------- 0 0.0 1.0 91 91
+ 0.327367 0 1 poisson 500 ------- 0 0.0 1.0 212 212
r 0.32865 0 1 poisson 500 ------- 0 0.0 1.0 77 77
- 0.33065 0 1 poisson 500 ------- 0 0.0 1.0 92 92
+ 0.331665 0 1 poisson 500 ------- 0 0.0 1.0 213 213
+ 0.331682 0 1 poisson 500 ------- 0 0.0 1.0 214 214
d 0.331682 0 1 poisson 500 ------- 0 0.0 1.0 214 214
r 0.33265 0 1 poisson 500 ------- 0 0.0 1.0 83 83
+ 0.332799 0 1 poisson 500 ------- 0 0.0 1.0 215 215
d 0.332799 0 1 poisson 500 ------- 0 0.0 1.0 215 215
+ 0.33371 0 1 poisson 500 ------- 0 0.0 1.0 216 216
d 0.33371 0 1 poisson 500 ------- 0 0.0 1.0 216 216
+ 0.3343 0 1 poisson 500 ------- 0 0.0 1.0 217 217
d 0.3343 0 1 poisson 500 ------- 0 0.0 1.0 217 217
- 0.33465 0 1 poisson 500 ------- 0 0.0 1.0 93 93
+ 0.335551 0 1 poisson 500 ------- 0 0.0 1.0 218 218
r 0.33665 0 1 poisson 500 ------- 0 0.0 1.0 87 87
+ 0.337265 0 1 poisson 500 ------- 0 0.0 1.0 219 219
d 0.337265 0 1 poisson 500 ------- 0 0.0 1.0 219 219
+ 0.338645 0 1 poisson 500 ------- 0 0.0 1.0 220 220
d 0.338645 0 1 poisson 500 ------- 0 0.0 1.0 220 220
- 0.33865 0 1 poisson 500 ------- 0 0.0 1.0 94 94
+ 0.338716 0 1 poisson 500 ------- 0 0.0 1.0 221 221
r 0.34065 0 1 poisson 500 ------- 0 0.0 1.0 91 91
- 0.34265 0 1 poisson 500 ------- 0 0.0 1.0 95 95
+ 0.343165 0 1 poisson 500 ------- 0 0.0 1.0 222 222
+ 0.343745 0 1 poisson 500 ------- 0 0.0 1.0 223 223
d 0.343745 0 1 poisson 500 ------- 0 0.0 1.0 223 223
r 0.34465 0 1 poisson 500 ------- 0 0.0 1.0 92 92
+ 0.346277 0 1 poisson 500 ------- 0 0.0 1.0 224 224
d 0.346277 0 1 poisson 500 ------- 0 0.0 1.0 224 224
- 0.34665 0 1 poisson 500 ------- 0 0.0 1.0 96 96
+ 0.347357 0 1 poisson 500 ------- 0 0.0 1.0 225 225
+ 0.34797 0 1 poisson 500 ------- 0 0.0 1.0 226 226
d 0.34797 0 1 poisson 500 ------- 0 0.0 1.0 226 226
r 0.34865 0 1 poisson 500 ------- 0 0.0 1.0 93 93
- 0.35065 0 1 poisson 500 ------- 0 0.0 1.0 98 98
+ 0.350686 0 1 poisson 500 ------- 0 0.0 1.0 227 227
r 0.35265 0 1 poisson 500 ------- 0 0.0 1.0 94 94
+ 0.354545 0 1 poisson 500 ------- 0 0.0 1.0 228 228
d 0.354545 0 1 poisson 500 ------- 0 0.0 1.0 228 228
- 0.35465 0 1 poisson 500 ------- 0 0.0 1.0 99 99
+ 0.355426 0 1 poisson 500 ------- 0 0.0 1.0 229 229
r 0.35665 0 1 poisson 500 ------- 0 0.0 1.0 95 95
+ 0.357007 0 1 poisson 500 ------- 0 0.0 1.0 230 230
d 0.357007 0 1 poisson 500 ------- 0 0.0 1.0 230 230
+ 0.358483 0 1 poisson 500 ------- 0 0.0 1.0 231 231
d 0.358483 0 1 poisson 500 ------- 0 0.0 1.0 231 231
- 0.35865 0 1 poisson 500 ------- 0 0.0 1.0 100 100
+ 0.35979 0 1 poisson 500 ------- 0 0.0 1.0 232 232
r 0.36065 0 1 poisson 500 ------- 0 0.0 1.0 96 96
+ 0.361102 0 1 poisson 500 ------- 0 0.0 1.0 233 233
d 0.361102 0 1 poisson 500 ------- 0 0.0 1.0 233 233
+ 0.361438 0 1 poisson 500 ------- 0 0.0 1.0 234 234
d 0.361438 0 1 poisson 500 ------- 0 0.0 1.0 234 234
+ 0.36257 0 1 poisson 500 ------- 0 0.0 1.0 235 235
d 0.36257 0 1 poisson 500 ------- 0 0.0 1.0 235 235
- 0.36265 0 1 poisson 500 ------- 0 0.0 1.0 104 104
+ 0.363383 0 1 poisson 500 ------- 0 0.0 1.0 236 236
+ 0.363613 0 1 poisson 500 ------- 0 0.0 1.0 237 237
d 0.363613 0 1 poisson 500 ------- 0 0.0 1.0 237 237
+ 0.364087 0 1 poisson 500 ------- 0 0.0 1.0 238 238
d 0.364087 0 1 poisson 500 ------- 0 0.0 1.0 238 238
r 0.36465 0 1 poisson 500 ------- 0 0.0 1.0 98 98
+ 0.365119 0 1 poisson 500 ------- 0 0.0 1.0 239 239
d 0.365119 0 1 poisson 500 ------- 0 0.0 1.0 239 239
+ 0.36599 0 1 poisson 500 ------- 0 0.0 1.0 240 240
d 0.36599 0 1 poisson 500 ------- 0 0.0 1.0 240 240
+ 0.366198 0 1 poisson 500 ------- 0 0.0 1.0 241 241
d 0.366198 0 1 poisson 500 ------- 0 0.0 1.0 241 241
- 0.36665 0 1 poisson 500 ------- 0 0.0 1.0 105 105
+ 0.366922 0 1 poisson 500 ------- 0 0.0 1.0 242 242
+ 0.367028 0 1 poisson 500 ------- 0 0.0 1.0 243 243
d 0.367028 0 1 poisson 500 ------- 0 0.0 1.0 243 243
r 0.36865 0 1 poisson 500 ------- 0 0.0 1.0 99 99
+ 0.368781 0 1 poisson 500 ------- 0 0.0 1.0 244 244
d 0.368781 0 1 poisson 500 ------- 0 0.0 1.0 244 244
- 0.37065 0 1 poisson 500 ------- 0 0.0 1.0 110 110
+ 0.372423 0 1 poisson 500 ------- 0 0.0 1.0 245 245
r 0.37265 0 1 poisson 500 ------- 0 0.0 1.0 100 100
+ 0.373972 0 1 poisson 500 ------- 0 0.0 1.0 246 246
d 0.373972 0 1 poisson 500 ------- 0 0.0 1.0 246 246
+ 0.374201 0 1 poisson 500 ------- 0 0.0 1.0 247 247
d 0.374201 0 1 poisson 500 ------- 0 0.0 1.0 247 247
- 0.37465 0 1 poisson 500 ------- 0 0.0 1.0 112 112
+ 0.375199 0 1 poisson 500 ------- 0 0.0 1.0 248 248
+ 0.375216 0 1 poisson 500 ------- 0 0.0 1.0 249 249
d 0.375216 0 1 poisson 500 ------- 0 0.0 1.0 249 249
+ 0.376132 0 1 poisson 500 ------- 0 0.0 1.0 250 250
d 0.376132 0 1 poisson 500 ------- 0 0.0 1.0 250 250
r 0.37665 0 1 poisson 500 ------- 0 0.0 1.0 104 104
+ 0.377987 0 1 poisson 500 ------- 0 0.0 1.0 251 251
d 0.377987 0 1 poisson 500 ------- 0 0.0 1.0 251 251
+ 0.378187 0 1 poisson 500 ------- 0 0.0 1.0 252 252
d 0.378187 0 1 poisson 500 ------- 0 0.0 1.0 252 252
+ 0.378305 0 1 poisson 500 ------- 0 0.0 1.0 253 253
d 0.378305 0 1 poisson 500 ------- 0 0.0 1.0 253 253
+ 0.378441 0 1 poisson 500 ------- 0 0.0 1.0 254 254
d 0.378441 0 1 poisson 500 ------- 0 0.0 1.0 254 254
- 0.37865 0 1 poisson 500 ------- 0 0.0 1.0 113 113
+ 0.379923 0 1 poisson 500 ------- 0 0.0 1.0 255 255
r 0.38065 0 1 poisson 500 ------- 0 0.0 1.0 105 105
+ 0.380819 0 1 poisson 500 ------- 0 0.0 1.0 256 256
d 0.380819 0 1 poisson 500 ------- 0 0.0 1.0 256 256
+ 0.381169 0 1 poisson 500 ------- 0 0.0 1.0 257 257
d 0.381169 0 1 poisson 500 ------- 0 0.0 1.0 257 257
+ 0.38224 0 1 poisson 500 ------- 0 0.0 1.0 258 258
d 0.38224 0 1 poisson 500 ------- 0 0.0 1.0 258 258
+ 0.382585 0 1 poisson 500 ------- 0 0.0 1.0 259 259
d 0.382585 0 1 poisson 500 ------- 0 0.0 1.0 259 259
- 0.38265 0 1 poisson 500 ------- 0 0.0 1.0 116 116
r 0.38465 0 1 poisson 500 ------- 0 0.0 1.0 110 110
+ 0.386115 0 1 poisson 500 ------- 0 0.0 1.0 260 260
- 0.38665 0 1 poisson 500 ------- 0 0.0 1.0 118 118
+ 0.387868 0 1 poisson 500 ------- 0 0.0 1.0 261 261
r 0.38865 0 1 poisson 500 ------- 0 0.0 1.0 112 112
+ 0.389304 0 1 poisson 500 ------- 0 0.0 1.0 262 262
d 0.389304 0 1 poisson 500 ------- 0 0.0 1.0 262 262
+ 0.390379 0 1 poisson 500 ------- 0 0.0 1.0 263 263
d 0.390379 0 1 poisson 500 ------- 0 0.0 1.0 263 263
- 0.39065 0 1 poisson 500 ------- 0 0.0 1.0 122 122
+ 0.391088 0 1 poisson 500 ------- 0 0.0 1.0 264 264
+ 0.391658 0 1 poisson 500 ------- 0 0.0 1.0 265 265
d 0.391658 0 1 poisson 500 ------- 0 0.0 1.0 265 265
+ 0.392396 0 1 poisson 500 ------- 0 0.0 1.0 266 266
d 0.392396 0 1 poisson 500 ------- 0 0.0 1.0 266 266
r 0.39265 0 1 poisson 500 ------- 0 0.0 1.0 113 113
+ 0.394238 0 1 poisson 500 ------- 0 0.0 1.0 267 267
d 0.394238 0 1 poisson 500 ------- 0 0.0 1.0 267 267
- 0.39465 0 1 poisson 500 ------- 0 0.0 1.0 127 127