+ 0 0 1 poisson 500 ------- 0 0.0 1.0 0 0
- 0 0 1 poisson 500 ------- 0 0.0 1.0 0 0
r 0.014 0 1 poisson 500 ------- 0 0.0 1.0 0 0
+ 0.127805 0 1 poisson 500 ------- 0 0.0 1.0 1 1
- 0.127805 0 1 poisson 500 ------- 0 0.0 1.0 1 1
+ 0.1372 0 1 poisson 500 ------- 0 0.0 1.0 2 2
- 0.1372 0 1 poisson 500 ------- 0 0.0 1.0 2 2
r 0.141805 0 1 poisson 500 ------- 0 0.0 1.0 1 1
r 0.1512 0 1 poisson 500 ------- 0 0.0 1.0 2 2
+ 0.205267 0 1 poisson 500 ------- 0 0.0 1.0 3 3
- 0.205267 0 1 poisson 500 ------- 0 0.0 1.0 3 3
r 0.219267 0 1 poisson 500 ------- 0 0.0 1.0 3 3
+ 0.244132 0 1 poisson 500 ------- 0 0.0 1.0 4 4
- 0.244132 0 1 poisson 500 ------- 0 0.0 1.0 4 4
+ 0.257225 0 1 poisson 500 ------- 0 0.0 1.0 5 5
- 0.257225 0 1 poisson 500 ------- 0 0.0 1.0 5 5
r 0.258132 0 1 poisson 500 ------- 0 0.0 1.0 4 4
+ 0.260812 0 1 poisson 500 ------- 0 0.0 1.0 6 6
- 0.261225 0 1 poisson 500 ------- 0 0.0 1.0 6 6
r 0.271225 0 1 poisson 500 ------- 0 0.0 1.0 5 5
r 0.275225 0 1 poisson 500 ------- 0 0.0 1.0 6 6
+ 0.279399 0 1 poisson 500 ------- 0 0.0 1.0 7 7
- 0.279399 0 1 poisson 500 ------- 0 0.0 1.0 7 7
+ 0.282643 0 1 poisson 500 ------- 0 0.0 1.0 8 8
- 0.283399 0 1 poisson 500 ------- 0 0.0 1.0 8 8
r 0.293399 0 1 poisson 500 ------- 0 0.0 1.0 7 7
r 0.297399 0 1 poisson 500 ------- 0 0.0 1.0 8 8
+ 0.305841 0 1 poisson 500 ------- 0 0.0 1.0 9 9
- 0.305841 0 1 poisson 500 ------- 0 0.0 1.0 9 9
+ 0.31301 0 1 poisson 500 ------- 0 0.0 1.0 10 10
- 0.31301 0 1 poisson 500 ------- 0 0.0 1.0 10 10
r 0.319841 0 1 poisson 500 ------- 0 0.0 1.0 9 9
r 0.32701 0 1 poisson 500 ------- 0 0.0 1.0 10 10
+ 0.331796 0 1 poisson 500 ------- 0 0.0 1.0 11 11
- 0.331796 0 1 poisson 500 ------- 0 0.0 1.0 11 11
+ 0.334656 0 1 poisson 500 ------- 0 0.0 1.0 12 12
- 0.335796 0 1 poisson 500 ------- 0 0.0 1.0 12 12
r 0.345796 0 1 poisson 500 ------- 0 0.0 1.0 11 11
r 0.349796 0 1 poisson 500 ------- 0 0.0 1.0 12 12
+ 0.363568 0 1 poisson 500 ------- 0 0.0 1.0 13 13
- 0.363568 0 1 poisson 500 ------- 0 0.0 1.0 13 13
r 0.377568 0 1 poisson 500 ------- 0 0.0 1.0 13 13
+ 0.413989 0 1 poisson 500 ------- 0 0.0 1.0 14 14
- 0.413989 0 1 poisson 500 ------- 0 0.0 1.0 14 14
+ 0.421128 0 1 poisson 500 ------- 0 0.0 1.0 15 15
- 0.421128 0 1 poisson 500 ------- 0 0.0 1.0 15 15
r 0.427989 0 1 poisson 500 ------- 0 0.0 1.0 14 14
r 0.435128 0 1 poisson 500 ------- 0 0.0 1.0 15 15
+ 0.4559 0 1 poisson 500 ------- 0 0.0 1.0 16 16
- 0.4559 0 1 poisson 500 ------- 0 0.0 1.0 16 16
+ 0.458318 0 1 poisson 500 ------- 0 0.0 1.0 17 17
- 0.4599 0 1 poisson 500 ------- 0 0.0 1.0 17 17
r 0.4699 0 1 poisson 500 ------- 0 0.0 1.0 16 16
+ 0.47206 0 1 poisson 500 ------- 0 0.0 1.0 18 18
- 0.47206 0 1 poisson 500 ------- 0 0.0 1.0 18 18
r 0.4739 0 1 poisson 500 ------- 0 0.0 1.0 17 17
r 0.48606 0 1 poisson 500 ------- 0 0.0 1.0 18 18
+ 0.499965 0 1 poisson 500 ------- 0 0.0 1.0 19 19
- 0.499965 0 1 poisson 500 ------- 0 0.0 1.0 19 19
r 0.513965 0 1 poisson 500 ------- 0 0.0 1.0 19 19
+ 0.537773 0 1 poisson 500 ------- 0 0.0 1.0 20 20
- 0.537773 0 1 poisson 500 ------- 0 0.0 1.0 20 20
+ 0.541203 0 1 poisson 500 ------- 0 0.0 1.0 21 21
- 0.541773 0 1 poisson 500 ------- 0 0.0 1.0 21 21
r 0.551773 0 1 poisson 500 ------- 0 0.0 1.0 20 20
r 0.555773 0 1 poisson 500 ------- 0 0.0 1.0 21 21
+ 0.558058 0 1 poisson 500 ------- 0 0.0 1.0 22 22
- 0.558058 0 1 poisson 500 ------- 0 0.0 1.0 22 22
r 0.572058 0 1 poisson 500 ------- 0 0.0 1.0 22 22
+ 0.579729 0 1 poisson 500 ------- 0 0.0 1.0 23 23
- 0.579729 0 1 poisson 500 ------- 0 0.0 1.0 23 23
r 0.593729 0 1 poisson 500 ------- 0 0.0 1.0 23 23
+ 0.594046 0 1 poisson 500 ------- 0 0.0 1.0 24 24
- 0.594046 0 1 poisson 500 ------- 0 0.0 1.0 24 24
+ 0.604551 0 1 poisson 500 ------- 0 0.0 1.0 25 25
- 0.604551 0 1 poisson 500 ------- 0 0.0 1.0 25 25
r 0.608046 0 1 poisson 500 ------- 0 0.0 1.0 24 24
+ 0.616764 0 1 poisson 500 ------- 0 0.0 1.0 26 26
- 0.616764 0 1 poisson 500 ------- 0 0.0 1.0 26 26
r 0.618551 0 1 poisson 500 ------- 0 0.0 1.0 25 25
+ 0.622647 0 1 poisson 500 ------- 0 0.0 1.0 27 27
- 0.622647 0 1 poisson 500 ------- 0 0.0 1.0 27 27
+ 0.625022 0 1 poisson 500 ------- 0 0.0 1.0 28 28
- 0.626647 0 1 poisson 500 ------- 0 0.0 1.0 28 28
+ 0.627815 0 1 poisson 500 ------- 0 0.0 1.0 29 29
- 0.630647 0 1 poisson 500 ------- 0 0.0 1.0 29 29
r 0.630764 0 1 poisson 500 ------- 0 0.0 1.0 26 26
r 0.636647 0 1 poisson 500 ------- 0 0.0 1.0 27 27
r 0.640647 0 1 poisson 500 ------- 0 0.0 1.0 28 28
r 0.644647 0 1 poisson 500 ------- 0 0.0 1.0 29 29
+ 0.652249 0 1 poisson 500 ------- 0 0.0 1.0 30 30
- 0.652249 0 1 poisson 500 ------- 0 0.0 1.0 30 30
r 0.666249 0 1 poisson 500 ------- 0 0.0 1.0 30 30
+ 0.675001 0 1 poisson 500 ------- 0 0.0 1.0 31 31
- 0.675001 0 1 poisson 500 ------- 0 0.0 1.0 31 31
+ 0.677581 0 1 poisson 500 ------- 0 0.0 1.0 32 32
- 0.679001 0 1 poisson 500 ------- 0 0.0 1.0 32 32
+ 0.683814 0 1 poisson 500 ------- 0 0.0 1.0 33 33
- 0.683814 0 1 poisson 500 ------- 0 0.0 1.0 33 33
+ 0.688158 0 1 poisson 500 ------- 0 0.0 1.0 34 34
- 0.688158 0 1 poisson 500 ------- 0 0.0 1.0 34 34
r 0.689001 0 1 poisson 500 ------- 0 0.0 1.0 31 31
+ 0.689756 0 1 poisson 500 ------- 0 0.0 1.0 35 35
- 0.692158 0 1 poisson 500 ------- 0 0.0 1.0 35 35
r 0.693001 0 1 poisson 500 ------- 0 0.0 1.0 32 32
r 0.697814 0 1 poisson 500 ------- 0 0.0 1.0 33 33
r 0.702158 0 1 poisson 500 ------- 0 0.0 1.0 34 34
+ 0.704198 0 1 poisson 500 ------- 0 0.0 1.0 36 36
- 0.704198 0 1 poisson 500 ------- 0 0.0 1.0 36 36
r 0.706158 0 1 poisson 500 ------- 0 0.0 1.0 35 35
r 0.718198 0 1 poisson 500 ------- 0 0.0 1.0 36 36
+ 0.739631 0 1 poisson 500 ------- 0 0.0 1.0 37 37
- 0.739631 0 1 poisson 500 ------- 0 0.0 1.0 37 37
r 0.753631 0 1 poisson 500 ------- 0 0.0 1.0 37 37
+ 0.754124 0 1 poisson 500 ------- 0 0.0 1.0 38 38
- 0.754124 0 1 poisson 500 ------- 0 0.0 1.0 38 38
r 0.768124 0 1 poisson 500 ------- 0 0.0 1.0 38 38
+ 0.780919 0 1 poisson 500 ------- 0 0.0 1.0 39 39
- 0.780919 0 1 poisson 500 ------- 0 0.0 1.0 39 39
+ 0.78283 0 1 poisson 500 ------- 0 0.0 1.0 40 40
+ 0.783714 0 1 poisson 500 ------- 0 0.0 1.0 41 41
- 0.784919 0 1 poisson 500 ------- 0 0.0 1.0 40 40
+ 0.785554 0 1 poisson 500 ------- 0 0.0 1.0 42 42
- 0.788919 0 1 poisson 500 ------- 0 0.0 1.0 41 41
- 0.792919 0 1 poisson 500 ------- 0 0.0 1.0 42 42
r 0.794919 0 1 poisson 500 ------- 0 0.0 1.0 39 39
r 0.798919 0 1 poisson 500 ------- 0 0.0 1.0 40 40
r 0.802919 0 1 poisson 500 ------- 0 0.0 1.0 41 41
r 0.806919 0 1 poisson 500 ------- 0 0.0 1.0 42 42
+ 0.820578 0 1 poisson 500 ------- 0 0.0 1.0 43 43
- 0.820578 0 1 poisson 500 ------- 0 0.0 1.0 43 43
r 0.834578 0 1 poisson 500 ------- 0 0.0 1.0 43 43
+ 0.866024 0 1 poisson 500 ------- 0 0.0 1.0 44 44
- 0.866024 0 1 poisson 500 ------- 0 0.0 1.0 44 44
r 0.880024 0 1 poisson 500 ------- 0 0.0 1.0 44 44
+ 0.938463 0 1 poisson 500 ------- 0 0.0 1.0 45 45
- 0.938463 0 1 poisson 500 ------- 0 0.0 1.0 45 45
+ 0.946769 0 1 poisson 500 ------- 0 0.0 1.0 46 46
- 0.946769 0 1 poisson 500 ------- 0 0.0 1.0 46 46
r 0.952463 0 1 poisson 500 ------- 0 0.0 1.0 45 45
r 0.960769 0 1 poisson 500 ------- 0 0.0 1.0 46 46
+ 0.964236 0 1 poisson 500 ------- 0 0.0 1.0 47 47
- 0.964236 0 1 poisson 500 ------- 0 0.0 1.0 47 47
r 0.978236 0 1 poisson 500 ------- 0 0.0 1.0 47 47
+ 0.997751 0 1 poisson 500 ------- 0 0.0 1.0 48 48
- 0.997751 0 1 poisson 500 ------- 0 0.0 1.0 48 48
+ 1.004192 0 1 poisson 500 ------- 0 0.0 1.0 49 49
- 1.004192 0 1 poisson 500 ------- 0 0.0 1.0 49 49
r 1.011751 0 1 poisson 500 ------- 0 0.0 1.0 48 48
r 1.018192 0 1 poisson 500 ------- 0 0.0 1.0 49 49
+ 1.025931 0 1 poisson 500 ------- 0 0.0 1.0 50 50
- 1.025931 0 1 poisson 500 ------- 0 0.0 1.0 50 50
+ 1.031668 0 1 poisson 500 ------- 0 0.0 1.0 51 51
- 1.031668 0 1 poisson 500 ------- 0 0.0 1.0 51 51
r 1.039931 0 1 poisson 500 ------- 0 0.0 1.0 50 50
+ 1.041385 0 1 poisson 500 ------- 0 0.0 1.0 52 52
- 1.041385 0 1 poisson 500 ------- 0 0.0 1.0 52 52
+ 1.043491 0 1 poisson 500 ------- 0 0.0 1.0 53 53
- 1.045385 0 1 poisson 500 ------- 0 0.0 1.0 53 53
r 1.045668 0 1 poisson 500 ------- 0 0.0 1.0 51 51
r 1.055385 0 1 poisson 500 ------- 0 0.0 1.0 52 52
r 1.059385 0 1 poisson 500 ------- 0 0.0 1.0 53 53
+ 1.064933 0 1 poisson 500 ------- 0 0.0 1.0 54 54
- 1.064933 0 1 poisson 500 ------- 0 0.0 1.0 54 54
+ 1.074358 0 1 poisson 500 ------- 0 0.0 1.0 55 55
- 1.074358 0 1 poisson 500 ------- 0 0.0 1.0 55 55
r 1.078933 0 1 poisson 500 ------- 0 0.0 1.0 54 54
+ 1.088023 0 1 poisson 500 ------- 0 0.0 1.0 56 56
- 1.088023 0 1 poisson 500 ------- 0 0.0 1.0 56 56
r 1.088358 0 1 poisson 500 ------- 0 0.0 1.0 55 55
r 1.102023 0 1 poisson 500 ------- 0 0.0 1.0 56 56
+ 1.145486 0 1 poisson 500 ------- 0 0.0 1.0 57 57
- 1.145486 0 1 poisson 500 ------- 0 0.0 1.0 57 57
r 1.159486 0 1 poisson 500 ------- 0 0.0 1.0 57 57
+ 1.163356 0 1 poisson 500 ------- 0 0.0 1.0 58 58
- 1.163356 0 1 poisson 500 ------- 0 0.0 1.0 58 58
r 1.177356 0 1 poisson 500 ------- 0 0.0 1.0 58 58
+ 1.190249 0 1 poisson 500 ------- 0 0.0 1.0 59 59
- 1.190249 0 1 poisson 500 ------- 0 0.0 1.0 59 59
+ 1.194123 0 1 poisson 500 ------- 0 0.0 1.0 60 60
- 1.194249 0 1 poisson 500 ------- 0 0.0 1.0 60 60
+ 1.194997 0 1 poisson 500 ------- 0 0.0 1.0 61 61
- 1.198249 0 1 poisson 500 ------- 0 0.0 1.0 61 61
+ 1.199123 0 1 poisson 500 ------- 0 0.0 1.0 62 62
- 1.202249 0 1 poisson 500 ------- 0 0.0 1.0 62 62
r 1.204249 0 1 poisson 500 ------- 0 0.0 1.0 59 59
r 1.208249 0 1 poisson 500 ------- 0 0.0 1.0 60 60
r 1.212249 0 1 poisson 500 ------- 0 0.0 1.0 61 61
r 1.216249 0 1 poisson 500 ------- 0 0.0 1.0 62 62
+ 1.224344 0 1 poisson 500 ------- 0 0.0 1.0 63 63
- 1.224344 0 1 poisson 500 ------- 0 0.0 1.0 63 63
+ 1.230167 0 1 poisson 500 ------- 0 0.0 1.0 64 64
- 1.230167 0 1 poisson 500 ------- 0 0.0 1.0 64 64
r 1.238344 0 1 poisson 500 ------- 0 0.0 1.0 63 63
r 1.244167 0 1 poisson 500 ------- 0 0.0 1.0 64 64
+ 1.257717 0 1 poisson 500 ------- 0 0.0 1.0 65 65
- 1.257717 0 1 poisson 500 ------- 0 0.0 1.0 65 65
+ 1.258106 0 1 poisson 500 ------- 0 0.0 1.0 66 66
- 1.261717 0 1 poisson 500 ------- 0 0.0 1.0 66 66
r 1.271717 0 1 poisson 500 ------- 0 0.0 1.0 65 65
r 1.275717 0 1 poisson 500 ------- 0 0.0 1.0 66 66
+ 1.296394 0 1 poisson 500 ------- 0 0.0 1.0 67 67
- 1.296394 0 1 poisson 500 ------- 0 0.0 1.0 67 67
+ 1.307751 0 1 poisson 500 ------- 0 0.0 1.0 68 68
- 1.307751 0 1 poisson 500 ------- 0 0.0 1.0 68 68
r 1.310394 0 1 poisson 500 ------- 0 0.0 1.0 67 67
r 1.321751 0 1 poisson 500 ------- 0 0.0 1.0 68 68
+ 1.35564 0 1 poisson 500 ------- 0 0.0 1.0 69 69
- 1.35564 0 1 poisson 500 ------- 0 0.0 1.0 69 69
+ 1.357959 0 1 poisson 500 ------- 0 0.0 1.0 70 70
- 1.35964 0 1 poisson 500 ------- 0 0.0 1.0 70 70
+ 1.368029 0 1 poisson 500 ------- 0 0.0 1.0 71 71
- 1.368029 0 1 poisson 500 ------- 0 0.0 1.0 71 71
r 1.36964 0 1 poisson 500 ------- 0 0.0 1.0 69 69
+ 1.372954 0 1 poisson 500 ------- 0 0.0 1.0 72 72
- 1.372954 0 1 poisson 500 ------- 0 0.0 1.0 72 72
r 1.37364 0 1 poisson 500 ------- 0 0.0 1.0 70 70
r 1.382029 0 1 poisson 500 ------- 0 0.0 1.0 71 71
+ 1.386787 0 1 poisson 500 ------- 0 0.0 1.0 73 73
- 1.386787 0 1 poisson 500 ------- 0 0.0 1.0 73 73
r 1.386954 0 1 poisson 500 ------- 0 0.0 1.0 72 72
r 1.400787 0 1 poisson 500 ------- 0 0.0 1.0 73 73
+ 1.425638 0 1 poisson 500 ------- 0 0.0 1.0 74 74
- 1.425638 0 1 poisson 500 ------- 0 0.0 1.0 74 74
+ 1.428922 0 1 poisson 500 ------- 0 0.0 1.0 75 75
- 1.429638 0 1 poisson 500 ------- 0 0.0 1.0 75 75
+ 1.430558 0 1 poisson 500 ------- 0 0.0 1.0 76 76
- 1.433638 0 1 poisson 500 ------- 0 0.0 1.0 76 76
+ 1.435636 0 1 poisson 500 ------- 0 0.0 1.0 77 77
- 1.437638 0 1 poisson 500 ------- 0 0.0 1.0 77 77
+ 1.437779 0 1 poisson 500 ------- 0 0.0 1.0 78 78
r 1.439638 0 1 poisson 500 ------- 0 0.0 1.0 74 74
- 1.441638 0 1 poisson 500 ------- 0 0.0 1.0 78 78
r 1.443638 0 1 poisson 500 ------- 0 0.0 1.0 75 75
+ 1.446327 0 1 poisson 500 ------- 0 0.0 1.0 79 79
- 1.446327 0 1 poisson 500 ------- 0 0.0 1.0 79 79
r 1.447638 0 1 poisson 500 ------- 0 0.0 1.0 76 76
+ 1.451235 0 1 poisson 500 ------- 0 0.0 1.0 80 80
- 1.451235 0 1 poisson 500 ------- 0 0.0 1.0 80 80
r 1.451638 0 1 poisson 500 ------- 0 0.0 1.0 77 77
+ 1.454765 0 1 poisson 500 ------- 0 0.0 1.0 81 81
- 1.455235 0 1 poisson 500 ------- 0 0.0 1.0 81 81
r 1.455638 0 1 poisson 500 ------- 0 0.0 1.0 78 78
r 1.460327 0 1 poisson 500 ------- 0 0.0 1.0 79 79
r 1.465235 0 1 poisson 500 ------- 0 0.0 1.0 80 80
r 1.469235 0 1 poisson 500 ------- 0 0.0 1.0 81 81
+ 1.471287 0 1 poisson 500 ------- 0 0.0 1.0 82 82
- 1.471287 0 1 poisson 500 ------- 0 0.0 1.0 82 82
+ 1.48061 0 1 poisson 500 ------- 0 0.0 1.0 83 83
- 1.48061 0 1 poisson 500 ------- 0 0.0 1.0 83 83
+ 1.483872 0 1 poisson 500 ------- 0 0.0 1.0 84 84
- 1.48461 0 1 poisson 500 ------- 0 0.0 1.0 84 84
r 1.485287 0 1 poisson 500 ------- 0 0.0 1.0 82 82
+ 1.48777 0 1 poisson 500 ------- 0 0.0 1.0 85 85
- 1.48861 0 1 poisson 500 ------- 0 0.0 1.0 85 85
+ 1.494333 0 1 poisson 500 ------- 0 0.0 1.0 86 86
- 1.494333 0 1 poisson 500 ------- 0 0.0 1.0 86 86
r 1.49461 0 1 poisson 500 ------- 0 0.0 1.0 83 83
r 1.49861 0 1 poisson 500 ------- 0 0.0 1.0 84 84
r 1.50261 0 1 poisson 500 ------- 0 0.0 1.0 85 85
r 1.508333 0 1 poisson 500 ------- 0 0.0 1.0 86 86
+ 1.524688 0 1 poisson 500 ------- 0 0.0 1.0 87 87
- 1.524688 0 1 poisson 500 ------- 0 0.0 1.0 87 87
r 1.538688 0 1 poisson 500 ------- 0 0.0 1.0 87 87
+ 1.539096 0 1 poisson 500 ------- 0 0.0 1.0 88 88
- 1.539096 0 1 poisson 500 ------- 0 0.0 1.0 88 88
+ 1.548774 0 1 poisson 500 ------- 0 0.0 1.0 89 89
- 1.548774 0 1 poisson 500 ------- 0 0.0 1.0 89 89
r 1.553096 0 1 poisson 500 ------- 0 0.0 1.0 88 88
r 1.562774 0 1 poisson 500 ------- 0 0.0 1.0 89 89
+ 1.564527 0 1 poisson 500 ------- 0 0.0 1.0 90 90
- 1.564527 0 1 poisson 500 ------- 0 0.0 1.0 90 90
r 1.578527 0 1 poisson 500 ------- 0 0.0 1.0 90 90
+ 1.702981 0 1 poisson 500 ------- 0 0.0 1.0 91 91
- 1.702981 0 1 poisson 500 ------- 0 0.0 1.0 91 91
r 1.716981 0 1 poisson 500 ------- 0 0.0 1.0 91 91
+ 1.742721 0 1 poisson 500 ------- 0 0.0 1.0 92 92
- 1.742721 0 1 poisson 500 ------- 0 0.0 1.0 92 92
r 1.756721 0 1 poisson 500 ------- 0 0.0 1.0 92 92
+ 1.760352 0 1 poisson 500 ------- 0 0.0 1.0 93 93
- 1.760352 0 1 poisson 500 ------- 0 0.0 1.0 93 93
+ 1.766158 0 1 poisson 500 ------- 0 0.0 1.0 94 94
- 1.766158 0 1 poisson 500 ------- 0 0.0 1.0 94 94
+ 1.767633 0 1 poisson 500 ------- 0 0.0 1.0 95 95
- 1.770158 0 1 poisson 500 ------- 0 0.0 1.0 95 95
r 1.774352 0 1 poisson 500 ------- 0 0.0 1.0 93 93
r 1.780158 0 1 poisson 500 ------- 0 0.0 1.0 94 94
r 1.784158 0 1 poisson 500 ------- 0 0.0 1.0 95 95
+ 1.822314 0 1 poisson 500 ------- 0 0.0 1.0 96 96
- 1.822314 0 1 poisson 500 ------- 0 0.0 1.0 96 96
r 1.836314 0 1 poisson 500 ------- 0 0.0 1.0 96 96
+ 1.838429 0 1 poisson 500 ------- 0 0.0 1.0 97 97
- 1.838429 0 1 poisson 500 ------- 0 0.0 1.0 97 97
r 1.852429 0 1 poisson 500 ------- 0 0.0 1.0 97 97
+ 1.857428 0 1 poisson 500 ------- 0 0.0 1.0 98 98
- 1.857428 0 1 poisson 500 ------- 0 0.0 1.0 98 98
r 1.871428 0 1 poisson 500 ------- 0 0.0 1.0 98 98
+ 1.948608 0 1 poisson 500 ------- 0 0.0 1.0 99 99
- 1.948608 0 1 poisson 500 ------- 0 0.0 1.0 99 99
r 1.962608 0 1 poisson 500 ------- 0 0.0 1.0 99 99
+ 1.966752 0 1 poisson 500 ------- 0 0.0 1.0 100 100
- 1.966752 0 1 poisson 500 ------- 0 0.0 1.0 100 100
+ 1.968775 0 1 poisson 500 ------- 0 0.0 1.0 101 101
- 1.970752 0 1 poisson 500 ------- 0 0.0 1.0 101 101
+ 1.97082 0 1 poisson 500 ------- 0 0.0 1.0 102 102
+ 1.974274 0 1 poisson 500 ------- 0 0.0 1.0 103 103
- 1.974752 0 1 poisson 500 ------- 0 0.0 1.0 102 102
- 1.978752 0 1 poisson 500 ------- 0 0.0 1.0 103 103
r 1.980752 0 1 poisson 500 ------- 0 0.0 1.0 100 100
r 1.984752 0 1 poisson 500 ------- 0 0.0 1.0 101 101
r 1.988752 0 1 poisson 500 ------- 0 0.0 1.0 102 102
r 1.992752 0 1 poisson 500 ------- 0 0.0 1.0 103 103
+ 2.002511 0 1 poisson 500 ------- 0 0.0 1.0 104 104
- 2.002511 0 1 poisson 500 ------- 0 0.0 1.0 104 104
r 2.016511 0 1 poisson 500 ------- 0 0.0 1.0 104 104
+ 2.057613 0 1 poisson 500 ------- 0 0.0 1.0 105 105
- 2.057613 0 1 poisson 500 ------- 0 0.0 1.0 105 105
+ 2.062105 0 1 poisson 500 ------- 0 0.0 1.0 106 106
- 2.062105 0 1 poisson 500 ------- 0 0.0 1.0 106 106
+ 2.069873 0 1 poisson 500 ------- 0 0.0 1.0 107 107
- 2.069873 0 1 poisson 500 ------- 0 0.0 1.0 107 107
r 2.071613 0 1 poisson 500 ------- 0 0.0 1.0 105 105
+ 2.073653 0 1 poisson 500 ------- 0 0.0 1.0 108 108
- 2.073873 0 1 poisson 500 ------- 0 0.0 1.0 108 108
r 2.076105 0 1 poisson 500 ------- 0 0.0 1.0 106 106
r 2.083873 0 1 poisson 500 ------- 0 0.0 1.0 107 107
+ 2.084092 0 1 poisson 500 ------- 0 0.0 1.0 109 109
- 2.084092 0 1 poisson 500 ------- 0 0.0 1.0 109 109
r 2.087873 0 1 poisson 500 ------- 0 0.0 1.0 108 108
+ 2.096824 0 1 poisson 500 ------- 0 0.0 1.0 110 110
- 2.096824 0 1 poisson 500 ------- 0 0.0 1.0 110 110
r 2.098092 0 1 poisson 500 ------- 0 0.0 1.0 109 109
r 2.110824 0 1 poisson 500 ------- 0 0.0 1.0 110 110
+ 2.121977 0 1 poisson 500 ------- 0 0.0 1.0 111 111
- 2.121977 0 1 poisson 500 ------- 0 0.0 1.0 111 111
r 2.135977 0 1 poisson 500 ------- 0 0.0 1.0 111 111
+ 2.188142 0 1 poisson 500 ------- 0 0.0 1.0 112 112
- 2.188142 0 1 poisson 500 ------- 0 0.0 1.0 112 112
+ 2.201281 0 1 poisson 500 ------- 0 0.0 1.0 113 113
- 2.201281 0 1 poisson 500 ------- 0 0.0 1.0 113 113
r 2.202142 0 1 poisson 500 ------- 0 0.0 1.0 112 112
+ 2.214518 0 1 poisson 500 ------- 0 0.0 1.0 114 114
- 2.214518 0 1 poisson 500 ------- 0 0.0 1.0 114 114
r 2.215281 0 1 poisson 500 ------- 0 0.0 1.0 113 113
r 2.228518 0 1 poisson 500 ------- 0 0.0 1.0 114 114
+ 2.232198 0 1 poisson 500 ------- 0 0.0 1.0 115 115
- 2.232198 0 1 poisson 500 ------- 0 0.0 1.0 115 115
r 2.246198 0 1 poisson 500 ------- 0 0.0 1.0 115 115
+ 2.266232 0 1 poisson 500 ------- 0 0.0 1.0 116 116
- 2.266232 0 1 poisson 500 ------- 0 0.0 1.0 116 116
+ 2.267929 0 1 poisson 500 ------- 0 0.0 1.0 117 117
- 2.270232 0 1 poisson 500 ------- 0 0.0 1.0 117 117
r 2.280232 0 1 poisson 500 ------- 0 0.0 1.0 116 116
r 2.284232 0 1 poisson 500 ------- 0 0.0 1.0 117 117
+ 2.292586 0 1 poisson 500 ------- 0 0.0 1.0 118 118
- 2.292586 0 1 poisson 500 ------- 0 0.0 1.0 118 118
+ 2.306074 0 1 poisson 500 ------- 0 0.0 1.0 119 119
- 2.306074 0 1 poisson 500 ------- 0 0.0 1.0 119 119
r 2.306586 0 1 poisson 500 ------- 0 0.0 1.0 118 118
+ 2.319843 0 1 poisson 500 ------- 0 0.0 1.0 120 120
- 2.319843 0 1 poisson 500 ------- 0 0.0 1.0 120 120
r 2.320074 0 1 poisson 500 ------- 0 0.0 1.0 119 119
r 2.333843 0 1 poisson 500 ------- 0 0.0 1.0 120 120
+ 2.334207 0 1 poisson 500 ------- 0 0.0 1.0 121 121
- 2.334207 0 1 poisson 500 ------- 0 0.0 1.0 121 121
+ 2.339119 0 1 poisson 500 ------- 0 0.0 1.0 122 122
- 2.339119 0 1 poisson 500 ------- 0 0.0 1.0 122 122
r 2.348207 0 1 poisson 500 ------- 0 0.0 1.0 121 121
+ 2.350704 0 1 poisson 500 ------- 0 0.0 1.0 123 123
- 2.350704 0 1 poisson 500 ------- 0 0.0 1.0 123 123
+ 2.352447 0 1 poisson 500 ------- 0 0.0 1.0 124 124
r 2.353119 0 1 poisson 500 ------- 0 0.0 1.0 122 122
- 2.354704 0 1 poisson 500 ------- 0 0.0 1.0 124 124
+ 2.360021 0 1 poisson 500 ------- 0 0.0 1.0 125 125
- 2.360021 0 1 poisson 500 ------- 0 0.0 1.0 125 125
+ 2.362607 0 1 poisson 500 ------- 0 0.0 1.0 126 126
- 2.364021 0 1 poisson 500 ------- 0 0.0 1.0 126 126
r 2.364704 0 1 poisson 500 ------- 0 0.0 1.0 123 123
r 2.368704 0 1 poisson 500 ------- 0 0.0 1.0 124 124
r 2.374021 0 1 poisson 500 ------- 0 0.0 1.0 125 125
r 2.378021 0 1 poisson 500 ------- 0 0.0 1.0 126 126
+ 2.392077 0 1 poisson 500 ------- 0 0.0 1.0 127 127
- 2.392077 0 1 poisson 500 ------- 0 0.0 1.0 127 127
r 2.406077 0 1 poisson 500 ------- 0 0.0 1.0 127 127
+ 2.415211 0 1 poisson 500 ------- 0 0.0 1.0 128 128
- 2.415211 0 1 poisson 500 ------- 0 0.0 1.0 128 128
r 2.429211 0 1 poisson 500 ------- 0 0.0 1.0 128 128
+ 2.459071 0 1 poisson 500 ------- 0 0.0 1.0 129 129
- 2.459071 0 1 poisson 500 ------- 0 0.0 1.0 129 129
r 2.473071 0 1 poisson 500 ------- 0 0.0 1.0 129 129
+ 2.486806 0 1 poisson 500 ------- 0 0.0 1.0 130 130
- 2.486806 0 1 poisson 500 ------- 0 0.0 1.0 130 130
+ 2.489009 0 1 poisson 500 ------- 0 0.0 1.0 131 131
- 2.490806 0 1 poisson 500 ------- 0 0.0 1.0 131 131
r 2.500806 0 1 poisson 500 ------- 0 0.0 1.0 130 130
r 2.504806 0 1 poisson 500 ------- 0 0.0 1.0 131 131
+ 2.540711 0 1 poisson 500 ------- 0 0.0 1.0 132 132
- 2.540711 0 1 poisson 500 ------- 0 0.0 1.0 132 132
+ 2.549468 0 1 poisson 500 ------- 0 0.0 1.0 133 133
- 2.549468 0 1 poisson 500 ------- 0 0.0 1.0 133 133
r 2.554711 0 1 poisson 500 ------- 0 0.0 1.0 132 132
+ 2.555033 0 1 poisson 500 ------- 0 0.0 1.0 134 134
- 2.555033 0 1 poisson 500 ------- 0 0.0 1.0 134 134
r 2.563468 0 1 poisson 500 ------- 0 0.0 1.0 133 133
r 2.569033 0 1 poisson 500 ------- 0 0.0 1.0 134 134
+ 2.57877 0 1 poisson 500 ------- 0 0.0 1.0 135 135
- 2.57877 0 1 poisson 500 ------- 0 0.0 1.0 135 135
+ 2.581747 0 1 poisson 500 ------- 0 0.0 1.0 136 136
- 2.58277 0 1 poisson 500 ------- 0 0.0 1.0 136 136
r 2.59277 0 1 poisson 500 ------- 0 0.0 1.0 135 135
r 2.59677 0 1 poisson 500 ------- 0 0.0 1.0 136 136
+ 2.627113 0 1 poisson 500 ------- 0 0.0 1.0 137 137
- 2.627113 0 1 poisson 500 ------- 0 0.0 1.0 137 137
r 2.641113 0 1 poisson 500 ------- 0 0.0 1.0 137 137
+ 2.644375 0 1 poisson 500 ------- 0 0.0 1.0 138 138
- 2.644375 0 1 poisson 500 ------- 0 0.0 1.0 138 138
+ 2.648065 0 1 poisson 500 ------- 0 0.0 1.0 139 139
- 2.648375 0 1 poisson 500 ------- 0 0.0 1.0 139 139
+ 2.655279 0 1 poisson 500 ------- 0 0.0 1.0 140 140
- 2.655279 0 1 poisson 500 ------- 0 0.0 1.0 140 140
r 2.658375 0 1 poisson 500 ------- 0 0.0 1.0 138 138
r 2.662375 0 1 poisson 500 ------- 0 0.0 1.0 139 139
+ 2.668656 0 1 poisson 500 ------- 0 0.0 1.0 141 141
- 2.668656 0 1 poisson 500 ------- 0 0.0 1.0 141 141
r 2.669279 0 1 poisson 500 ------- 0 0.0 1.0 140 140
r 2.682656 0 1 poisson 500 ------- 0 0.0 1.0 141 141
+ 2.692242 0 1 poisson 500 ------- 0 0.0 1.0 142 142
- 2.692242 0 1 poisson 500 ------- 0 0.0 1.0 142 142
+ 2.705311 0 1 poisson 500 ------- 0 0.0 1.0 143 143
- 2.705311 0 1 poisson 500 ------- 0 0.0 1.0 143 143
r 2.706242 0 1 poisson 500 ------- 0 0.0 1.0 142 142
+ 2.706303 0 1 poisson 500 ------- 0 0.0 1.0 144 144
- 2.709311 0 1 poisson 500 ------- 0 0.0 1.0 144 144
+ 2.718728 0 1 poisson 500 ------- 0 0.0 1.0 145 145
- 2.718728 0 1 poisson 500 ------- 0 0.0 1.0 145 145
r 2.719311 0 1 poisson 500 ------- 0 0.0 1.0 143 143
+ 2.720388 0 1 poisson 500 ------- 0 0.0 1.0 146 146
+ 2.721079 0 1 poisson 500 ------- 0 0.0 1.0 147 147
+ 2.722664 0 1 poisson 500 ------- 0 0.0 1.0 148 148
- 2.722728 0 1 poisson 500 ------- 0 0.0 1.0 146 146
r 2.723311 0 1 poisson 500 ------- 0 0.0 1.0 144 144
- 2.726728 0 1 poisson 500 ------- 0 0.0 1.0 147 147
- 2.730728 0 1 poisson 500 ------- 0 0.0 1.0 148 148
r 2.732728 0 1 poisson 500 ------- 0 0.0 1.0 145 145
r 2.736728 0 1 poisson 500 ------- 0 0.0 1.0 146 146
r 2.740728 0 1 poisson 500 ------- 0 0.0 1.0 147 147
r 2.744728 0 1 poisson 500 ------- 0 0.0 1.0 148 148
+ 2.752828 0 1 poisson 500 ------- 0 0.0 1.0 149 149
- 2.752828 0 1 poisson 500 ------- 0 0.0 1.0 149 149
+ 2.753732 0 1 poisson 500 ------- 0 0.0 1.0 150 150
- 2.756828 0 1 poisson 500 ------- 0 0.0 1.0 150 150
+ 2.763585 0 1 poisson 500 ------- 0 0.0 1.0 151 151
- 2.763585 0 1 poisson 500 ------- 0 0.0 1.0 151 151
r 2.766828 0 1 poisson 500 ------- 0 0.0 1.0 149 149
r 2.770828 0 1 poisson 500 ------- 0 0.0 1.0 150 150
+ 2.773582 0 1 poisson 500 ------- 0 0.0 1.0 152 152
- 2.773582 0 1 poisson 500 ------- 0 0.0 1.0 152 152
r 2.777585 0 1 poisson 500 ------- 0 0.0 1.0 151 151
r 2.787582 0 1 poisson 500 ------- 0 0.0 1.0 152 152
+ 2.816954 0 1 poisson 500 ------- 0 0.0 1.0 153 153
- 2.816954 0 1 poisson 500 ------- 0 0.0 1.0 153 153
+ 2.817411 0 1 poisson 500 ------- 0 0.0 1.0 154 154
- 2.820954 0 1 poisson 500 ------- 0 0.0 1.0 154 154
+ 2.827935 0 1 poisson 500 ------- 0 0.0 1.0 155 155
- 2.827935 0 1 poisson 500 ------- 0 0.0 1.0 155 155
+ 2.829963 0 1 poisson 500 ------- 0 0.0 1.0 156 156
r 2.830954 0 1 poisson 500 ------- 0 0.0 1.0 153 153
- 2.831935 0 1 poisson 500 ------- 0 0.0 1.0 156 156
r 2.834954 0 1 poisson 500 ------- 0 0.0 1.0 154 154
+ 2.835003 0 1 poisson 500 ------- 0 0.0 1.0 157 157
- 2.835935 0 1 poisson 500 ------- 0 0.0 1.0 157 157
r 2.841935 0 1 poisson 500 ------- 0 0.0 1.0 155 155
r 2.845935 0 1 poisson 500 ------- 0 0.0 1.0 156 156
r 2.849935 0 1 poisson 500 ------- 0 0.0 1.0 157 157
+ 2.856381 0 1 poisson 500 ------- 0 0.0 1.0 158 158
- 2.856381 0 1 poisson 500 ------- 0 0.0 1.0 158 158
+ 2.86814 0 1 poisson 500 ------- 0 0.0 1.0 159 159
- 2.86814 0 1 poisson 500 ------- 0 0.0 1.0 159 159
r 2.870381 0 1 poisson 500 ------- 0 0.0 1.0 158 158
+ 2.87275 0 1 poisson 500 ------- 0 0.0 1.0 160 160
- 2.87275 0 1 poisson 500 ------- 0 0.0 1.0 160 160
r 2.88214 0 1 poisson 500 ------- 0 0.0 1.0 159 159
r 2.88675 0 1 poisson 500 ------- 0 0.0 1.0 160 160
+ 2.898037 0 1 poisson 500 ------- 0 0.0 1.0 161 161
- 2.898037 0 1 poisson 500 ------- 0 0.0 1.0 161 161
+ 2.904317 0 1 poisson 500 ------- 0 0.0 1.0 162 162
- 2.904317 0 1 poisson 500 ------- 0 0.0 1.0 162 162
+ 2.911032 0 1 poisson 500 ------- 0 0.0 1.0 163 163
- 2.911032 0 1 poisson 500 ------- 0 0.0 1.0 163 163
r 2.912037 0 1 poisson 500 ------- 0 0.0 1.0 161 161
r 2.918317 0 1 poisson 500 ------- 0 0.0 1.0 162 162
r 2.925032 0 1 poisson 500 ------- 0 0.0 1.0 163 163
+ 2.940168 0 1 poisson 500 ------- 0 0.0 1.0 164 164
- 2.940168 0 1 poisson 500 ------- 0 0.0 1.0 164 164
r 2.954168 0 1 poisson 500 ------- 0 0.0 1.0 164 164
+ 2.961432 0 1 poisson 500 ------- 0 0.0 1.0 165 165
- 2.961432 0 1 poisson 500 ------- 0 0.0 1.0 165 165
r 2.975432 0 1 poisson 500 ------- 0 0.0 1.0 165 165
+ 2.976971 0 1 poisson 500 ------- 0 0.0 1.0 166 166
- 2.976971 0 1 poisson 500 ------- 0 0.0 1.0 166 166
+ 2.984834 0 1 poisson 500 ------- 0 0.0 1.0 167 167
- 2.984834 0 1 poisson 500 ------- 0 0.0 1.0 167 167
r 2.990971 0 1 poisson 500 ------- 0 0.0 1.0 166 166
+ 2.991593 0 1 poisson 500 ------- 0 0.0 1.0 168 168
- 2.991593 0 1 poisson 500 ------- 0 0.0 1.0 168 168
+ 2.994108 0 1 poisson 500 ------- 0 0.0 1.0 169 169
- 2.995593 0 1 poisson 500 ------- 0 0.0 1.0 169 169
r 2.998834 0 1 poisson 500 ------- 0 0.0 1.0 167 167
r 3.005593 0 1 poisson 500 ------- 0 0.0 1.0 168 168
r 3.009593 0 1 poisson 500 ------- 0 0.0 1.0 169 169
+ 3.014451 0 1 poisson 500 ------- 0 0.0 1.0 170 170
- 3.014451 0 1 poisson 500 ------- 0 0.0 1.0 170 170
r 3.028451 0 1 poisson 500 ------- 0 0.0 1.0 170 170
+ 3.04314 0 1 poisson 500 ------- 0 0.0 1.0 171 171
- 3.04314 0 1 poisson 500 ------- 0 0.0 1.0 171 171
r 3.05714 0 1 poisson 500 ------- 0 0.0 1.0 171 171
+ 3.069469 0 1 poisson 500 ------- 0 0.0 1.0 172 172
- 3.069469 0 1 poisson 500 ------- 0 0.0 1.0 172 172
r 3.083469 0 1 poisson 500 ------- 0 0.0 1.0 172 172
+ 3.120354 0 1 poisson 500 ------- 0 0.0 1.0 173 173
- 3.120354 0 1 poisson 500 ------- 0 0.0 1.0 173 173
r 3.134354 0 1 poisson 500 ------- 0 0.0 1.0 173 173
+ 3.161295 0 1 poisson 500 ------- 0 0.0 1.0 174 174
- 3.161295 0 1 poisson 500 ------- 0 0.0 1.0 174 174
r 3.175295 0 1 poisson 500 ------- 0 0.0 1.0 174 174
+ 3.195297 0 1 poisson 500 ------- 0 0.0 1.0 175 175
- 3.195297 0 1 poisson 500 ------- 0 0.0 1.0 175 175
r 3.209297 0 1 poisson 500 ------- 0 0.0 1.0 175 175
+ 3.242022 0 1 poisson 500 ------- 0 0.0 1.0 176 176
- 3.242022 0 1 poisson 500 ------- 0 0.0 1.0 176 176
r 3.256022 0 1 poisson 500 ------- 0 0.0 1.0 176 176
+ 3.258407 0 1 poisson 500 ------- 0 0.0 1.0 177 177
- 3.258407 0 1 poisson 500 ------- 0 0.0 1.0 177 177
r 3.272407 0 1 poisson 500 ------- 0 0.0 1.0 177 177
+ 3.283051 0 1 poisson 500 ------- 0 0.0 1.0 178 178
- 3.283051 0 1 poisson 500 ------- 0 0.0 1.0 178 178
r 3.297051 0 1 poisson 500 ------- 0 0.0 1.0 178 178
+ 3.329357 0 1 poisson 500 ------- 0 0.0 1.0 179 179
- 3.329357 0 1 poisson 500 ------- 0 0.0 1.0 179 179
+ 3.330113 0 1 poisson 500 ------- 0 0.0 1.0 180 180
+ 3.333245 0 1 poisson 500 ------- 0 0.0 1.0 181 181
- 3.333357 0 1 poisson 500 ------- 0 0.0 1.0 180 180
- 3.337357 0 1 poisson 500 ------- 0 0.0 1.0 181 181
+ 3.338762 0 1 poisson 500 ------- 0 0.0 1.0 182 182
- 3.341357 0 1 poisson 500 ------- 0 0.0 1.0 182 182
r 3.343357 0 1 poisson 500 ------- 0 0.0 1.0 179 179
r 3.347357 0 1 poisson 500 ------- 0 0.0 1.0 180 180
r 3.351357 0 1 poisson 500 ------- 0 0.0 1.0 181 181
+ 3.352252 0 1 poisson 500 ------- 0 0.0 1.0 183 183
- 3.352252 0 1 poisson 500 ------- 0 0.0 1.0 183 183
+ 3.355232 0 1 poisson 500 ------- 0 0.0 1.0 184 184
r 3.355357 0 1 poisson 500 ------- 0 0.0 1.0 182 182
- 3.356252 0 1 poisson 500 ------- 0 0.0 1.0 184 184
r 3.366252 0 1 poisson 500 ------- 0 0.0 1.0 183 183
+ 3.370183 0 1 poisson 500 ------- 0 0.0 1.0 185 185
- 3.370183 0 1 poisson 500 ------- 0 0.0 1.0 185 185
r 3.370252 0 1 poisson 500 ------- 0 0.0 1.0 184 184
+ 3.379939 0 1 poisson 500 ------- 0 0.0 1.0 186 186
- 3.379939 0 1 poisson 500 ------- 0 0.0 1.0 186 186
r 3.384183 0 1 poisson 500 ------- 0 0.0 1.0 185 185
r 3.393939 0 1 poisson 500 ------- 0 0.0 1.0 186 186
+ 3.412602 0 1 poisson 500 ------- 0 0.0 1.0 187 187
- 3.412602 0 1 poisson 500 ------- 0 0.0 1.0 187 187
+ 3.421312 0 1 poisson 500 ------- 0 0.0 1.0 188 188
- 3.421312 0 1 poisson 500 ------- 0 0.0 1.0 188 188
r 3.426602 0 1 poisson 500 ------- 0 0.0 1.0 187 187
+ 3.435305 0 1 poisson 500 ------- 0 0.0 1.0 189 189
- 3.435305 0 1 poisson 500 ------- 0 0.0 1.0 189 189
r 3.435312 0 1 poisson 500 ------- 0 0.0 1.0 188 188
+ 3.438347 0 1 poisson 500 ------- 0 0.0 1.0 190 190
- 3.439305 0 1 poisson 500 ------- 0 0.0 1.0 190 190
+ 3.4418 0 1 poisson 500 ------- 0 0.0 1.0 191 191
- 3.443305 0 1 poisson 500 ------- 0 0.0 1.0 191 191
+ 3.444262 0 1 poisson 500 ------- 0 0.0 1.0 192 192
- 3.447305 0 1 poisson 500 ------- 0 0.0 1.0 192 192
r 3.449305 0 1 poisson 500 ------- 0 0.0 1.0 189 189
r 3.453305 0 1 poisson 500 ------- 0 0.0 1.0 190 190
r 3.457305 0 1 poisson 500 ------- 0 0.0 1.0 191 191
r 3.461305 0 1 poisson 500 ------- 0 0.0 1.0 192 192