+ 0 0 1 poisson 500 ------- 0 0.0 1.0 0 0
- 0 0 1 poisson 500 ------- 0 0.0 1.0 0 0
r 0.014 0 1 poisson 500 ------- 0 0.0 1.0 0 0
+ 0.031951 0 1 poisson 500 ------- 0 0.0 1.0 1 1
- 0.031951 0 1 poisson 500 ------- 0 0.0 1.0 1 1
+ 0.0343 0 1 poisson 500 ------- 0 0.0 1.0 2 2
- 0.035951 0 1 poisson 500 ------- 0 0.0 1.0 2 2
r 0.045951 0 1 poisson 500 ------- 0 0.0 1.0 1 1
r 0.049951 0 1 poisson 500 ------- 0 0.0 1.0 2 2
+ 0.051317 0 1 poisson 500 ------- 0 0.0 1.0 3 3
- 0.051317 0 1 poisson 500 ------- 0 0.0 1.0 3 3
+ 0.061033 0 1 poisson 500 ------- 0 0.0 1.0 4 4
- 0.061033 0 1 poisson 500 ------- 0 0.0 1.0 4 4
+ 0.064306 0 1 poisson 500 ------- 0 0.0 1.0 5 5
- 0.065033 0 1 poisson 500 ------- 0 0.0 1.0 5 5
+ 0.065203 0 1 poisson 500 ------- 0 0.0 1.0 6 6
r 0.065317 0 1 poisson 500 ------- 0 0.0 1.0 3 3
- 0.069033 0 1 poisson 500 ------- 0 0.0 1.0 6 6
+ 0.06985 0 1 poisson 500 ------- 0 0.0 1.0 7 7
+ 0.070661 0 1 poisson 500 ------- 0 0.0 1.0 8 8
- 0.073033 0 1 poisson 500 ------- 0 0.0 1.0 7 7
r 0.075033 0 1 poisson 500 ------- 0 0.0 1.0 4 4
+ 0.07646 0 1 poisson 500 ------- 0 0.0 1.0 9 9
- 0.077033 0 1 poisson 500 ------- 0 0.0 1.0 8 8
+ 0.078252 0 1 poisson 500 ------- 0 0.0 1.0 10 10
r 0.079033 0 1 poisson 500 ------- 0 0.0 1.0 5 5
- 0.081033 0 1 poisson 500 ------- 0 0.0 1.0 9 9
+ 0.082949 0 1 poisson 500 ------- 0 0.0 1.0 11 11
r 0.083033 0 1 poisson 500 ------- 0 0.0 1.0 6 6
+ 0.083664 0 1 poisson 500 ------- 0 0.0 1.0 12 12
- 0.085033 0 1 poisson 500 ------- 0 0.0 1.0 10 10
r 0.087033 0 1 poisson 500 ------- 0 0.0 1.0 7 7
- 0.089033 0 1 poisson 500 ------- 0 0.0 1.0 11 11
+ 0.090892 0 1 poisson 500 ------- 0 0.0 1.0 13 13
r 0.091033 0 1 poisson 500 ------- 0 0.0 1.0 8 8
- 0.093033 0 1 poisson 500 ------- 0 0.0 1.0 12 12
r 0.095033 0 1 poisson 500 ------- 0 0.0 1.0 9 9
- 0.097033 0 1 poisson 500 ------- 0 0.0 1.0 13 13
r 0.099033 0 1 poisson 500 ------- 0 0.0 1.0 10 10
r 0.103033 0 1 poisson 500 ------- 0 0.0 1.0 11 11
+ 0.103497 0 1 poisson 500 ------- 0 0.0 1.0 14 14
- 0.103497 0 1 poisson 500 ------- 0 0.0 1.0 14 14
+ 0.105282 0 1 poisson 500 ------- 0 0.0 1.0 15 15
r 0.107033 0 1 poisson 500 ------- 0 0.0 1.0 12 12
- 0.107497 0 1 poisson 500 ------- 0 0.0 1.0 15 15
r 0.111033 0 1 poisson 500 ------- 0 0.0 1.0 13 13
+ 0.113975 0 1 poisson 500 ------- 0 0.0 1.0 16 16
- 0.113975 0 1 poisson 500 ------- 0 0.0 1.0 16 16
+ 0.11458 0 1 poisson 500 ------- 0 0.0 1.0 17 17
r 0.117497 0 1 poisson 500 ------- 0 0.0 1.0 14 14
- 0.117975 0 1 poisson 500 ------- 0 0.0 1.0 17 17
+ 0.118015 0 1 poisson 500 ------- 0 0.0 1.0 18 18
r 0.121497 0 1 poisson 500 ------- 0 0.0 1.0 15 15
- 0.121975 0 1 poisson 500 ------- 0 0.0 1.0 18 18
+ 0.124991 0 1 poisson 500 ------- 0 0.0 1.0 19 19
- 0.125975 0 1 poisson 500 ------- 0 0.0 1.0 19 19
r 0.127975 0 1 poisson 500 ------- 0 0.0 1.0 16 16
r 0.131975 0 1 poisson 500 ------- 0 0.0 1.0 17 17
+ 0.134443 0 1 poisson 500 ------- 0 0.0 1.0 20 20
- 0.134443 0 1 poisson 500 ------- 0 0.0 1.0 20 20
+ 0.135301 0 1 poisson 500 ------- 0 0.0 1.0 21 21
r 0.135975 0 1 poisson 500 ------- 0 0.0 1.0 18 18
- 0.138443 0 1 poisson 500 ------- 0 0.0 1.0 21 21
+ 0.139515 0 1 poisson 500 ------- 0 0.0 1.0 22 22
r 0.139975 0 1 poisson 500 ------- 0 0.0 1.0 19 19
- 0.142443 0 1 poisson 500 ------- 0 0.0 1.0 22 22
+ 0.144932 0 1 poisson 500 ------- 0 0.0 1.0 23 23
- 0.146443 0 1 poisson 500 ------- 0 0.0 1.0 23 23
r 0.148443 0 1 poisson 500 ------- 0 0.0 1.0 20 20
+ 0.148512 0 1 poisson 500 ------- 0 0.0 1.0 24 24
- 0.150443 0 1 poisson 500 ------- 0 0.0 1.0 24 24
+ 0.151138 0 1 poisson 500 ------- 0 0.0 1.0 25 25
r 0.152443 0 1 poisson 500 ------- 0 0.0 1.0 21 21
+ 0.154191 0 1 poisson 500 ------- 0 0.0 1.0 26 26
- 0.154443 0 1 poisson 500 ------- 0 0.0 1.0 25 25
+ 0.155662 0 1 poisson 500 ------- 0 0.0 1.0 27 27
+ 0.156256 0 1 poisson 500 ------- 0 0.0 1.0 28 28
r 0.156443 0 1 poisson 500 ------- 0 0.0 1.0 22 22
+ 0.156954 0 1 poisson 500 ------- 0 0.0 1.0 29 29
- 0.158443 0 1 poisson 500 ------- 0 0.0 1.0 26 26
r 0.160443 0 1 poisson 500 ------- 0 0.0 1.0 23 23
- 0.162443 0 1 poisson 500 ------- 0 0.0 1.0 27 27
+ 0.163062 0 1 poisson 500 ------- 0 0.0 1.0 30 30
r 0.164443 0 1 poisson 500 ------- 0 0.0 1.0 24 24
- 0.166443 0 1 poisson 500 ------- 0 0.0 1.0 28 28
r 0.168443 0 1 poisson 500 ------- 0 0.0 1.0 25 25
+ 0.16875 0 1 poisson 500 ------- 0 0.0 1.0 31 31
+ 0.169395 0 1 poisson 500 ------- 0 0.0 1.0 32 32
- 0.170443 0 1 poisson 500 ------- 0 0.0 1.0 29 29
+ 0.170954 0 1 poisson 500 ------- 0 0.0 1.0 33 33
+ 0.17204 0 1 poisson 500 ------- 0 0.0 1.0 34 34
+ 0.172439 0 1 poisson 500 ------- 0 0.0 1.0 35 35
r 0.172443 0 1 poisson 500 ------- 0 0.0 1.0 26 26
- 0.174443 0 1 poisson 500 ------- 0 0.0 1.0 30 30
+ 0.176049 0 1 poisson 500 ------- 0 0.0 1.0 36 36
r 0.176443 0 1 poisson 500 ------- 0 0.0 1.0 27 27
- 0.178443 0 1 poisson 500 ------- 0 0.0 1.0 31 31
r 0.180443 0 1 poisson 500 ------- 0 0.0 1.0 28 28
- 0.182443 0 1 poisson 500 ------- 0 0.0 1.0 32 32
r 0.184443 0 1 poisson 500 ------- 0 0.0 1.0 29 29
+ 0.184908 0 1 poisson 500 ------- 0 0.0 1.0 37 37
- 0.186443 0 1 poisson 500 ------- 0 0.0 1.0 33 33
r 0.188443 0 1 poisson 500 ------- 0 0.0 1.0 30 30
+ 0.188531 0 1 poisson 500 ------- 0 0.0 1.0 38 38
- 0.190443 0 1 poisson 500 ------- 0 0.0 1.0 34 34
r 0.192443 0 1 poisson 500 ------- 0 0.0 1.0 31 31
- 0.194443 0 1 poisson 500 ------- 0 0.0 1.0 35 35
+ 0.19523 0 1 poisson 500 ------- 0 0.0 1.0 39 39
+ 0.195707 0 1 poisson 500 ------- 0 0.0 1.0 40 40
+ 0.195928 0 1 poisson 500 ------- 0 0.0 1.0 41 41
+ 0.196389 0 1 poisson 500 ------- 0 0.0 1.0 42 42
r 0.196443 0 1 poisson 500 ------- 0 0.0 1.0 32 32
- 0.198443 0 1 poisson 500 ------- 0 0.0 1.0 36 36
r 0.200443 0 1 poisson 500 ------- 0 0.0 1.0 33 33
- 0.202443 0 1 poisson 500 ------- 0 0.0 1.0 37 37
r 0.204443 0 1 poisson 500 ------- 0 0.0 1.0 34 34
+ 0.205144 0 1 poisson 500 ------- 0 0.0 1.0 43 43
- 0.206443 0 1 poisson 500 ------- 0 0.0 1.0 38 38
r 0.208443 0 1 poisson 500 ------- 0 0.0 1.0 35 35
- 0.210443 0 1 poisson 500 ------- 0 0.0 1.0 39 39
r 0.212443 0 1 poisson 500 ------- 0 0.0 1.0 36 36
- 0.214443 0 1 poisson 500 ------- 0 0.0 1.0 40 40
r 0.216443 0 1 poisson 500 ------- 0 0.0 1.0 37 37
+ 0.216506 0 1 poisson 500 ------- 0 0.0 1.0 44 44
- 0.218443 0 1 poisson 500 ------- 0 0.0 1.0 41 41
r 0.220443 0 1 poisson 500 ------- 0 0.0 1.0 38 38
- 0.222443 0 1 poisson 500 ------- 0 0.0 1.0 42 42
r 0.224443 0 1 poisson 500 ------- 0 0.0 1.0 39 39
- 0.226443 0 1 poisson 500 ------- 0 0.0 1.0 43 43
r 0.228443 0 1 poisson 500 ------- 0 0.0 1.0 40 40
- 0.230443 0 1 poisson 500 ------- 0 0.0 1.0 44 44
r 0.232443 0 1 poisson 500 ------- 0 0.0 1.0 41 41
+ 0.234616 0 1 poisson 500 ------- 0 0.0 1.0 45 45
- 0.234616 0 1 poisson 500 ------- 0 0.0 1.0 45 45
r 0.236443 0 1 poisson 500 ------- 0 0.0 1.0 42 42
+ 0.236692 0 1 poisson 500 ------- 0 0.0 1.0 46 46
- 0.238616 0 1 poisson 500 ------- 0 0.0 1.0 46 46
r 0.240443 0 1 poisson 500 ------- 0 0.0 1.0 43 43
+ 0.241059 0 1 poisson 500 ------- 0 0.0 1.0 47 47
- 0.242616 0 1 poisson 500 ------- 0 0.0 1.0 47 47
r 0.244443 0 1 poisson 500 ------- 0 0.0 1.0 44 44
r 0.248616 0 1 poisson 500 ------- 0 0.0 1.0 45 45
+ 0.249438 0 1 poisson 500 ------- 0 0.0 1.0 48 48
- 0.249438 0 1 poisson 500 ------- 0 0.0 1.0 48 48
+ 0.251048 0 1 poisson 500 ------- 0 0.0 1.0 49 49
r 0.252616 0 1 poisson 500 ------- 0 0.0 1.0 46 46
- 0.253438 0 1 poisson 500 ------- 0 0.0 1.0 49 49
+ 0.256483 0 1 poisson 500 ------- 0 0.0 1.0 50 50
r 0.256616 0 1 poisson 500 ------- 0 0.0 1.0 47 47
- 0.257438 0 1 poisson 500 ------- 0 0.0 1.0 50 50
+ 0.257917 0 1 poisson 500 ------- 0 0.0 1.0 51 51
+ 0.260346 0 1 poisson 500 ------- 0 0.0 1.0 52 52
+ 0.260873 0 1 poisson 500 ------- 0 0.0 1.0 53 53
- 0.261438 0 1 poisson 500 ------- 0 0.0 1.0 51 51
r 0.263438 0 1 poisson 500 ------- 0 0.0 1.0 48 48
- 0.265438 0 1 poisson 500 ------- 0 0.0 1.0 52 52
+ 0.266233 0 1 poisson 500 ------- 0 0.0 1.0 54 54
r 0.267438 0 1 poisson 500 ------- 0 0.0 1.0 49 49
+ 0.268589 0 1 poisson 500 ------- 0 0.0 1.0 55 55
- 0.269438 0 1 poisson 500 ------- 0 0.0 1.0 53 53
r 0.271438 0 1 poisson 500 ------- 0 0.0 1.0 50 50
+ 0.272006 0 1 poisson 500 ------- 0 0.0 1.0 56 56
- 0.273438 0 1 poisson 500 ------- 0 0.0 1.0 54 54
r 0.275438 0 1 poisson 500 ------- 0 0.0 1.0 51 51
- 0.277438 0 1 poisson 500 ------- 0 0.0 1.0 55 55
r 0.279438 0 1 poisson 500 ------- 0 0.0 1.0 52 52
- 0.281438 0 1 poisson 500 ------- 0 0.0 1.0 56 56
r 0.283438 0 1 poisson 500 ------- 0 0.0 1.0 53 53
+ 0.286372 0 1 poisson 500 ------- 0 0.0 1.0 57 57
- 0.286372 0 1 poisson 500 ------- 0 0.0 1.0 57 57
r 0.287438 0 1 poisson 500 ------- 0 0.0 1.0 54 54
+ 0.290839 0 1 poisson 500 ------- 0 0.0 1.0 58 58
- 0.290839 0 1 poisson 500 ------- 0 0.0 1.0 58 58
r 0.291438 0 1 poisson 500 ------- 0 0.0 1.0 55 55
r 0.295438 0 1 poisson 500 ------- 0 0.0 1.0 56 56
+ 0.297562 0 1 poisson 500 ------- 0 0.0 1.0 59 59
- 0.297562 0 1 poisson 500 ------- 0 0.0 1.0 59 59
+ 0.298531 0 1 poisson 500 ------- 0 0.0 1.0 60 60
+ 0.298749 0 1 poisson 500 ------- 0 0.0 1.0 61 61
+ 0.299781 0 1 poisson 500 ------- 0 0.0 1.0 62 62
r 0.300372 0 1 poisson 500 ------- 0 0.0 1.0 57 57
- 0.301562 0 1 poisson 500 ------- 0 0.0 1.0 60 60
r 0.304839 0 1 poisson 500 ------- 0 0.0 1.0 58 58
- 0.305562 0 1 poisson 500 ------- 0 0.0 1.0 61 61
+ 0.306086 0 1 poisson 500 ------- 0 0.0 1.0 63 63
+ 0.307542 0 1 poisson 500 ------- 0 0.0 1.0 64 64
- 0.309562 0 1 poisson 500 ------- 0 0.0 1.0 62 62
r 0.311562 0 1 poisson 500 ------- 0 0.0 1.0 59 59
- 0.313562 0 1 poisson 500 ------- 0 0.0 1.0 63 63
+ 0.314429 0 1 poisson 500 ------- 0 0.0 1.0 65 65
+ 0.314526 0 1 poisson 500 ------- 0 0.0 1.0 66 66
r 0.315562 0 1 poisson 500 ------- 0 0.0 1.0 60 60
- 0.317562 0 1 poisson 500 ------- 0 0.0 1.0 64 64
r 0.319562 0 1 poisson 500 ------- 0 0.0 1.0 61 61
- 0.321562 0 1 poisson 500 ------- 0 0.0 1.0 65 65
r 0.323562 0 1 poisson 500 ------- 0 0.0 1.0 62 62
+ 0.324098 0 1 poisson 500 ------- 0 0.0 1.0 67 67
- 0.325562 0 1 poisson 500 ------- 0 0.0 1.0 66 66
+ 0.326938 0 1 poisson 500 ------- 0 0.0 1.0 68 68
r 0.327562 0 1 poisson 500 ------- 0 0.0 1.0 63 63
- 0.329562 0 1 poisson 500 ------- 0 0.0 1.0 67 67
r 0.331562 0 1 poisson 500 ------- 0 0.0 1.0 64 64
- 0.333562 0 1 poisson 500 ------- 0 0.0 1.0 68 68
r 0.335562 0 1 poisson 500 ------- 0 0.0 1.0 65 65
+ 0.33891 0 1 poisson 500 ------- 0 0.0 1.0 69 69
- 0.33891 0 1 poisson 500 ------- 0 0.0 1.0 69 69
+ 0.33949 0 1 poisson 500 ------- 0 0.0 1.0 70 70
r 0.339562 0 1 poisson 500 ------- 0 0.0 1.0 66 66
+ 0.342007 0 1 poisson 500 ------- 0 0.0 1.0 71 71
- 0.34291 0 1 poisson 500 ------- 0 0.0 1.0 70 70
+ 0.343238 0 1 poisson 500 ------- 0 0.0 1.0 72 72
r 0.343562 0 1 poisson 500 ------- 0 0.0 1.0 67 67
+ 0.346697 0 1 poisson 500 ------- 0 0.0 1.0 73 73
- 0.34691 0 1 poisson 500 ------- 0 0.0 1.0 71 71
r 0.347562 0 1 poisson 500 ------- 0 0.0 1.0 68 68
- 0.35091 0 1 poisson 500 ------- 0 0.0 1.0 72 72
r 0.35291 0 1 poisson 500 ------- 0 0.0 1.0 69 69
- 0.35491 0 1 poisson 500 ------- 0 0.0 1.0 73 73
+ 0.356409 0 1 poisson 500 ------- 0 0.0 1.0 74 74
r 0.35691 0 1 poisson 500 ------- 0 0.0 1.0 70 70
+ 0.357231 0 1 poisson 500 ------- 0 0.0 1.0 75 75
+ 0.357639 0 1 poisson 500 ------- 0 0.0 1.0 76 76
+ 0.358909 0 1 poisson 500 ------- 0 0.0 1.0 77 77
- 0.35891 0 1 poisson 500 ------- 0 0.0 1.0 74 74
+ 0.359445 0 1 poisson 500 ------- 0 0.0 1.0 78 78
r 0.36091 0 1 poisson 500 ------- 0 0.0 1.0 71 71
+ 0.361582 0 1 poisson 500 ------- 0 0.0 1.0 79 79
+ 0.362809 0 1 poisson 500 ------- 0 0.0 1.0 80 80
- 0.36291 0 1 poisson 500 ------- 0 0.0 1.0 75 75
+ 0.363691 0 1 poisson 500 ------- 0 0.0 1.0 81 81
r 0.36491 0 1 poisson 500 ------- 0 0.0 1.0 72 72
- 0.36691 0 1 poisson 500 ------- 0 0.0 1.0 76 76
+ 0.367822 0 1 poisson 500 ------- 0 0.0 1.0 82 82
r 0.36891 0 1 poisson 500 ------- 0 0.0 1.0 73 73
+ 0.370153 0 1 poisson 500 ------- 0 0.0 1.0 83 83
- 0.37091 0 1 poisson 500 ------- 0 0.0 1.0 77 77
+ 0.370968 0 1 poisson 500 ------- 0 0.0 1.0 84 84
+ 0.371942 0 1 poisson 500 ------- 0 0.0 1.0 85 85
r 0.37291 0 1 poisson 500 ------- 0 0.0 1.0 74 74
+ 0.373583 0 1 poisson 500 ------- 0 0.0 1.0 86 86
- 0.37491 0 1 poisson 500 ------- 0 0.0 1.0 78 78
r 0.37691 0 1 poisson 500 ------- 0 0.0 1.0 75 75
- 0.37891 0 1 poisson 500 ------- 0 0.0 1.0 79 79
r 0.38091 0 1 poisson 500 ------- 0 0.0 1.0 76 76
+ 0.381172 0 1 poisson 500 ------- 0 0.0 1.0 87 87
- 0.38291 0 1 poisson 500 ------- 0 0.0 1.0 80 80
+ 0.384774 0 1 poisson 500 ------- 0 0.0 1.0 88 88
r 0.38491 0 1 poisson 500 ------- 0 0.0 1.0 77 77
- 0.38691 0 1 poisson 500 ------- 0 0.0 1.0 81 81
+ 0.387194 0 1 poisson 500 ------- 0 0.0 1.0 89 89
r 0.38891 0 1 poisson 500 ------- 0 0.0 1.0 78 78
- 0.39091 0 1 poisson 500 ------- 0 0.0 1.0 82 82
+ 0.391132 0 1 poisson 500 ------- 0 0.0 1.0 90 90
r 0.39291 0 1 poisson 500 ------- 0 0.0 1.0 79 79
- 0.39491 0 1 poisson 500 ------- 0 0.0 1.0 83 83
r 0.39691 0 1 poisson 500 ------- 0 0.0 1.0 80 80
- 0.39891 0 1 poisson 500 ------- 0 0.0 1.0 84 84
r 0.40091 0 1 poisson 500 ------- 0 0.0 1.0 81 81
- 0.40291 0 1 poisson 500 ------- 0 0.0 1.0 85 85
r 0.40491 0 1 poisson 500 ------- 0 0.0 1.0 82 82
- 0.40691 0 1 poisson 500 ------- 0 0.0 1.0 86 86
r 0.40891 0 1 poisson 500 ------- 0 0.0 1.0 83 83
- 0.41091 0 1 poisson 500 ------- 0 0.0 1.0 87 87
r 0.41291 0 1 poisson 500 ------- 0 0.0 1.0 84 84
- 0.41491 0 1 poisson 500 ------- 0 0.0 1.0 88 88
r 0.41691 0 1 poisson 500 ------- 0 0.0 1.0 85 85
- 0.41891 0 1 poisson 500 ------- 0 0.0 1.0 89 89
r 0.42091 0 1 poisson 500 ------- 0 0.0 1.0 86 86
- 0.42291 0 1 poisson 500 ------- 0 0.0 1.0 90 90
r 0.42491 0 1 poisson 500 ------- 0 0.0 1.0 87 87
+ 0.425745 0 1 poisson 500 ------- 0 0.0 1.0 91 91
- 0.42691 0 1 poisson 500 ------- 0 0.0 1.0 91 91
r 0.42891 0 1 poisson 500 ------- 0 0.0 1.0 88 88
r 0.43291 0 1 poisson 500 ------- 0 0.0 1.0 89 89
+ 0.43568 0 1 poisson 500 ------- 0 0.0 1.0 92 92
- 0.43568 0 1 poisson 500 ------- 0 0.0 1.0 92 92
r 0.43691 0 1 poisson 500 ------- 0 0.0 1.0 90 90
+ 0.440088 0 1 poisson 500 ------- 0 0.0 1.0 93 93
- 0.440088 0 1 poisson 500 ------- 0 0.0 1.0 93 93
r 0.44091 0 1 poisson 500 ------- 0 0.0 1.0 91 91
+ 0.44154 0 1 poisson 500 ------- 0 0.0 1.0 94 94
+ 0.441908 0 1 poisson 500 ------- 0 0.0 1.0 95 95
- 0.444088 0 1 poisson 500 ------- 0 0.0 1.0 94 94
- 0.448088 0 1 poisson 500 ------- 0 0.0 1.0 95 95
r 0.44968 0 1 poisson 500 ------- 0 0.0 1.0 92 92
r 0.454088 0 1 poisson 500 ------- 0 0.0 1.0 93 93
+ 0.455578 0 1 poisson 500 ------- 0 0.0 1.0 96 96
- 0.455578 0 1 poisson 500 ------- 0 0.0 1.0 96 96
r 0.458088 0 1 poisson 500 ------- 0 0.0 1.0 94 94
+ 0.459607 0 1 poisson 500 ------- 0 0.0 1.0 97 97
- 0.459607 0 1 poisson 500 ------- 0 0.0 1.0 97 97
r 0.462088 0 1 poisson 500 ------- 0 0.0 1.0 95 95
+ 0.464357 0 1 poisson 500 ------- 0 0.0 1.0 98 98
- 0.464357 0 1 poisson 500 ------- 0 0.0 1.0 98 98
r 0.469578 0 1 poisson 500 ------- 0 0.0 1.0 96 96
r 0.473607 0 1 poisson 500 ------- 0 0.0 1.0 97 97
r 0.478357 0 1 poisson 500 ------- 0 0.0 1.0 98 98
+ 0.487152 0 1 poisson 500 ------- 0 0.0 1.0 99 99
- 0.487152 0 1 poisson 500 ------- 0 0.0 1.0 99 99
+ 0.491688 0 1 poisson 500 ------- 0 0.0 1.0 100 100
- 0.491688 0 1 poisson 500 ------- 0 0.0 1.0 100 100
+ 0.492194 0 1 poisson 500 ------- 0 0.0 1.0 101 101
+ 0.492705 0 1 poisson 500 ------- 0 0.0 1.0 102 102
+ 0.493569 0 1 poisson 500 ------- 0 0.0 1.0 103 103
- 0.495688 0 1 poisson 500 ------- 0 0.0 1.0 101 101
- 0.499688 0 1 poisson 500 ------- 0 0.0 1.0 102 102
+ 0.500628 0 1 poisson 500 ------- 0 0.0 1.0 104 104
r 0.501152 0 1 poisson 500 ------- 0 0.0 1.0 99 99
- 0.503688 0 1 poisson 500 ------- 0 0.0 1.0 103 103
r 0.505688 0 1 poisson 500 ------- 0 0.0 1.0 100 100
- 0.507688 0 1 poisson 500 ------- 0 0.0 1.0 104 104
r 0.509688 0 1 poisson 500 ------- 0 0.0 1.0 101 101
r 0.513688 0 1 poisson 500 ------- 0 0.0 1.0 102 102
+ 0.514403 0 1 poisson 500 ------- 0 0.0 1.0 105 105
- 0.514403 0 1 poisson 500 ------- 0 0.0 1.0 105 105
+ 0.515526 0 1 poisson 500 ------- 0 0.0 1.0 106 106
+ 0.517468 0 1 poisson 500 ------- 0 0.0 1.0 107 107
r 0.517688 0 1 poisson 500 ------- 0 0.0 1.0 103 103
- 0.518403 0 1 poisson 500 ------- 0 0.0 1.0 106 106
+ 0.518413 0 1 poisson 500 ------- 0 0.0 1.0 108 108
+ 0.521023 0 1 poisson 500 ------- 0 0.0 1.0 109 109
r 0.521688 0 1 poisson 500 ------- 0 0.0 1.0 104 104
- 0.522403 0 1 poisson 500 ------- 0 0.0 1.0 107 107
+ 0.524206 0 1 poisson 500 ------- 0 0.0 1.0 110 110
- 0.526403 0 1 poisson 500 ------- 0 0.0 1.0 108 108
r 0.528403 0 1 poisson 500 ------- 0 0.0 1.0 105 105
- 0.530403 0 1 poisson 500 ------- 0 0.0 1.0 109 109
+ 0.530494 0 1 poisson 500 ------- 0 0.0 1.0 111 111
r 0.532403 0 1 poisson 500 ------- 0 0.0 1.0 106 106
- 0.534403 0 1 poisson 500 ------- 0 0.0 1.0 110 110
r 0.536403 0 1 poisson 500 ------- 0 0.0 1.0 107 107
- 0.538403 0 1 poisson 500 ------- 0 0.0 1.0 111 111
r 0.540403 0 1 poisson 500 ------- 0 0.0 1.0 108 108
r 0.544403 0 1 poisson 500 ------- 0 0.0 1.0 109 109
+ 0.547036 0 1 poisson 500 ------- 0 0.0 1.0 112 112
- 0.547036 0 1 poisson 500 ------- 0 0.0 1.0 112 112
r 0.548403 0 1 poisson 500 ------- 0 0.0 1.0 110 110
+ 0.55032 0 1 poisson 500 ------- 0 0.0 1.0 113 113
- 0.551036 0 1 poisson 500 ------- 0 0.0 1.0 113 113
r 0.552403 0 1 poisson 500 ------- 0 0.0 1.0 111 111
+ 0.55363 0 1 poisson 500 ------- 0 0.0 1.0 114 114
- 0.555036 0 1 poisson 500 ------- 0 0.0 1.0 114 114
+ 0.55805 0 1 poisson 500 ------- 0 0.0 1.0 115 115
- 0.559036 0 1 poisson 500 ------- 0 0.0 1.0 115 115
r 0.561036 0 1 poisson 500 ------- 0 0.0 1.0 112 112
r 0.565036 0 1 poisson 500 ------- 0 0.0 1.0 113 113
+ 0.566558 0 1 poisson 500 ------- 0 0.0 1.0 116 116
- 0.566558 0 1 poisson 500 ------- 0 0.0 1.0 116 116
+ 0.566982 0 1 poisson 500 ------- 0 0.0 1.0 117 117
r 0.569036 0 1 poisson 500 ------- 0 0.0 1.0 114 114
- 0.570558 0 1 poisson 500 ------- 0 0.0 1.0 117 117
r 0.573036 0 1 poisson 500 ------- 0 0.0 1.0 115 115
+ 0.573146 0 1 poisson 500 ------- 0 0.0 1.0 118 118
- 0.574558 0 1 poisson 500 ------- 0 0.0 1.0 118 118
+ 0.576519 0 1 poisson 500 ------- 0 0.0 1.0 119 119
- 0.578558 0 1 poisson 500 ------- 0 0.0 1.0 119 119
+ 0.579961 0 1 poisson 500 ------- 0 0.0 1.0 120 120
r 0.580558 0 1 poisson 500 ------- 0 0.0 1.0 116 116
- 0.582558 0 1 poisson 500 ------- 0 0.0 1.0 120 120
+ 0.583552 0 1 poisson 500 ------- 0 0.0 1.0 121 121
r 0.584558 0 1 poisson 500 ------- 0 0.0 1.0 117 117
+ 0.58478 0 1 poisson 500 ------- 0 0.0 1.0 122 122
- 0.586558 0 1 poisson 500 ------- 0 0.0 1.0 121 121
+ 0.587676 0 1 poisson 500 ------- 0 0.0 1.0 123 123
+ 0.588112 0 1 poisson 500 ------- 0 0.0 1.0 124 124
r 0.588558 0 1 poisson 500 ------- 0 0.0 1.0 118 118
+ 0.590005 0 1 poisson 500 ------- 0 0.0 1.0 125 125
- 0.590558 0 1 poisson 500 ------- 0 0.0 1.0 122 122
+ 0.590652 0 1 poisson 500 ------- 0 0.0 1.0 126 126
r 0.592558 0 1 poisson 500 ------- 0 0.0 1.0 119 119
- 0.594558 0 1 poisson 500 ------- 0 0.0 1.0 123 123
r 0.596558 0 1 poisson 500 ------- 0 0.0 1.0 120 120
+ 0.598019 0 1 poisson 500 ------- 0 0.0 1.0 127 127
- 0.598558 0 1 poisson 500 ------- 0 0.0 1.0 124 124
r 0.600558 0 1 poisson 500 ------- 0 0.0 1.0 121 121
- 0.602558 0 1 poisson 500 ------- 0 0.0 1.0 125 125
+ 0.603803 0 1 poisson 500 ------- 0 0.0 1.0 128 128
r 0.604558 0 1 poisson 500 ------- 0 0.0 1.0 122 122
- 0.606558 0 1 poisson 500 ------- 0 0.0 1.0 126 126
r 0.608558 0 1 poisson 500 ------- 0 0.0 1.0 123 123
- 0.610558 0 1 poisson 500 ------- 0 0.0 1.0 127 127
r 0.612558 0 1 poisson 500 ------- 0 0.0 1.0 124 124
- 0.614558 0 1 poisson 500 ------- 0 0.0 1.0 128 128
+ 0.614768 0 1 poisson 500 ------- 0 0.0 1.0 129 129
r 0.616558 0 1 poisson 500 ------- 0 0.0 1.0 125 125
- 0.618558 0 1 poisson 500 ------- 0 0.0 1.0 129 129
r 0.620558 0 1 poisson 500 ------- 0 0.0 1.0 126 126
+ 0.621701 0 1 poisson 500 ------- 0 0.0 1.0 130 130
+ 0.622252 0 1 poisson 500 ------- 0 0.0 1.0 131 131
- 0.622558 0 1 poisson 500 ------- 0 0.0 1.0 130 130
r 0.624558 0 1 poisson 500 ------- 0 0.0 1.0 127 127
- 0.626558 0 1 poisson 500 ------- 0 0.0 1.0 131 131
r 0.628558 0 1 poisson 500 ------- 0 0.0 1.0 128 128
r 0.632558 0 1 poisson 500 ------- 0 0.0 1.0 129 129
+ 0.635178 0 1 poisson 500 ------- 0 0.0 1.0 132 132
- 0.635178 0 1 poisson 500 ------- 0 0.0 1.0 132 132
r 0.636558 0 1 poisson 500 ------- 0 0.0 1.0 130 130
+ 0.637367 0 1 poisson 500 ------- 0 0.0 1.0 133 133
+ 0.638758 0 1 poisson 500 ------- 0 0.0 1.0 134 134
- 0.639178 0 1 poisson 500 ------- 0 0.0 1.0 133 133
r 0.640558 0 1 poisson 500 ------- 0 0.0 1.0 131 131
- 0.643178 0 1 poisson 500 ------- 0 0.0 1.0 134 134
+ 0.644693 0 1 poisson 500 ------- 0 0.0 1.0 135 135
+ 0.645437 0 1 poisson 500 ------- 0 0.0 1.0 136 136
- 0.647178 0 1 poisson 500 ------- 0 0.0 1.0 135 135
r 0.649178 0 1 poisson 500 ------- 0 0.0 1.0 132 132
- 0.651178 0 1 poisson 500 ------- 0 0.0 1.0 136 136
r 0.653178 0 1 poisson 500 ------- 0 0.0 1.0 133 133
+ 0.656778 0 1 poisson 500 ------- 0 0.0 1.0 137 137
- 0.656778 0 1 poisson 500 ------- 0 0.0 1.0 137 137
r 0.657178 0 1 poisson 500 ------- 0 0.0 1.0 134 134
+ 0.661094 0 1 poisson 500 ------- 0 0.0 1.0 138 138
- 0.661094 0 1 poisson 500 ------- 0 0.0 1.0 138 138
r 0.661178 0 1 poisson 500 ------- 0 0.0 1.0 135 135
+ 0.662016 0 1 poisson 500 ------- 0 0.0 1.0 139 139
+ 0.66382 0 1 poisson 500 ------- 0 0.0 1.0 140 140
- 0.665094 0 1 poisson 500 ------- 0 0.0 1.0 139 139
r 0.665178 0 1 poisson 500 ------- 0 0.0 1.0 136 136
+ 0.667164 0 1 poisson 500 ------- 0 0.0 1.0 141 141
- 0.669094 0 1 poisson 500 ------- 0 0.0 1.0 140 140
r 0.670778 0 1 poisson 500 ------- 0 0.0 1.0 137 137
+ 0.673061 0 1 poisson 500 ------- 0 0.0 1.0 142 142
- 0.673094 0 1 poisson 500 ------- 0 0.0 1.0 141 141
r 0.675094 0 1 poisson 500 ------- 0 0.0 1.0 138 138
+ 0.676328 0 1 poisson 500 ------- 0 0.0 1.0 143 143
+ 0.676576 0 1 poisson 500 ------- 0 0.0 1.0 144 144
- 0.677094 0 1 poisson 500 ------- 0 0.0 1.0 142 142
r 0.679094 0 1 poisson 500 ------- 0 0.0 1.0 139 139
+ 0.679682 0 1 poisson 500 ------- 0 0.0 1.0 145 145
+ 0.680097 0 1 poisson 500 ------- 0 0.0 1.0 146 146
+ 0.68027 0 1 poisson 500 ------- 0 0.0 1.0 147 147
+ 0.680666 0 1 poisson 500 ------- 0 0.0 1.0 148 148
- 0.681094 0 1 poisson 500 ------- 0 0.0 1.0 143 143
r 0.683094 0 1 poisson 500 ------- 0 0.0 1.0 140 140
- 0.685094 0 1 poisson 500 ------- 0 0.0 1.0 144 144
r 0.687094 0 1 poisson 500 ------- 0 0.0 1.0 141 141
+ 0.688207 0 1 poisson 500 ------- 0 0.0 1.0 149 149
+ 0.688433 0 1 poisson 500 ------- 0 0.0 1.0 150 150
- 0.689094 0 1 poisson 500 ------- 0 0.0 1.0 145 145
+ 0.690896 0 1 poisson 500 ------- 0 0.0 1.0 151 151
r 0.691094 0 1 poisson 500 ------- 0 0.0 1.0 142 142
- 0.693094 0 1 poisson 500 ------- 0 0.0 1.0 146 146
+ 0.693395 0 1 poisson 500 ------- 0 0.0 1.0 152 152
r 0.695094 0 1 poisson 500 ------- 0 0.0 1.0 143 143
- 0.697094 0 1 poisson 500 ------- 0 0.0 1.0 147 147
r 0.699094 0 1 poisson 500 ------- 0 0.0 1.0 144 144
- 0.701094 0 1 poisson 500 ------- 0 0.0 1.0 148 148
r 0.703094 0 1 poisson 500 ------- 0 0.0 1.0 145 145
+ 0.704239 0 1 poisson 500 ------- 0 0.0 1.0 153 153
+ 0.704353 0 1 poisson 500 ------- 0 0.0 1.0 154 154
- 0.705094 0 1 poisson 500 ------- 0 0.0 1.0 149 149
+ 0.706984 0 1 poisson 500 ------- 0 0.0 1.0 155 155
r 0.707094 0 1 poisson 500 ------- 0 0.0 1.0 146 146
+ 0.707491 0 1 poisson 500 ------- 0 0.0 1.0 156 156
+ 0.708751 0 1 poisson 500 ------- 0 0.0 1.0 157 157
- 0.709094 0 1 poisson 500 ------- 0 0.0 1.0 150 150
r 0.711094 0 1 poisson 500 ------- 0 0.0 1.0 147 147
- 0.713094 0 1 poisson 500 ------- 0 0.0 1.0 151 151
+ 0.714095 0 1 poisson 500 ------- 0 0.0 1.0 158 158
r 0.715094 0 1 poisson 500 ------- 0 0.0 1.0 148 148
+ 0.717035 0 1 poisson 500 ------- 0 0.0 1.0 159 159
- 0.717094 0 1 poisson 500 ------- 0 0.0 1.0 152 152
+ 0.718187 0 1 poisson 500 ------- 0 0.0 1.0 160 160
r 0.719094 0 1 poisson 500 ------- 0 0.0 1.0 149 149
- 0.721094 0 1 poisson 500 ------- 0 0.0 1.0 153 153
r 0.723094 0 1 poisson 500 ------- 0 0.0 1.0 150 150
+ 0.724509 0 1 poisson 500 ------- 0 0.0 1.0 161 161
- 0.725094 0 1 poisson 500 ------- 0 0.0 1.0 154 154
+ 0.726079 0 1 poisson 500 ------- 0 0.0 1.0 162 162
r 0.727094 0 1 poisson 500 ------- 0 0.0 1.0 151 151
+ 0.727758 0 1 poisson 500 ------- 0 0.0 1.0 163 163
- 0.729094 0 1 poisson 500 ------- 0 0.0 1.0 155 155
r 0.731094 0 1 poisson 500 ------- 0 0.0 1.0 152 152
- 0.733094 0 1 poisson 500 ------- 0 0.0 1.0 156 156
+ 0.735042 0 1 poisson 500 ------- 0 0.0 1.0 164 164
r 0.735094 0 1 poisson 500 ------- 0 0.0 1.0 153 153
- 0.737094 0 1 poisson 500 ------- 0 0.0 1.0 157 157
r 0.739094 0 1 poisson 500 ------- 0 0.0 1.0 154 154
+ 0.740358 0 1 poisson 500 ------- 0 0.0 1.0 165 165
- 0.741094 0 1 poisson 500 ------- 0 0.0 1.0 158 158
r 0.743094 0 1 poisson 500 ------- 0 0.0 1.0 155 155
+ 0.744243 0 1 poisson 500 ------- 0 0.0 1.0 166 166
- 0.745094 0 1 poisson 500 ------- 0 0.0 1.0 159 159
+ 0.746209 0 1 poisson 500 ------- 0 0.0 1.0 167 167
r 0.747094 0 1 poisson 500 ------- 0 0.0 1.0 156 156
+ 0.747898 0 1 poisson 500 ------- 0 0.0 1.0 168 168
+ 0.748527 0 1 poisson 500 ------- 0 0.0 1.0 169 169
- 0.749094 0 1 poisson 500 ------- 0 0.0 1.0 160 160
r 0.751094 0 1 poisson 500 ------- 0 0.0 1.0 157 157
- 0.753094 0 1 poisson 500 ------- 0 0.0 1.0 161 161
+ 0.753613 0 1 poisson 500 ------- 0 0.0 1.0 170 170
r 0.755094 0 1 poisson 500 ------- 0 0.0 1.0 158 158
- 0.757094 0 1 poisson 500 ------- 0 0.0 1.0 162 162
r 0.759094 0 1 poisson 500 ------- 0 0.0 1.0 159 159
+ 0.760785 0 1 poisson 500 ------- 0 0.0 1.0 171 171
- 0.761094 0 1 poisson 500 ------- 0 0.0 1.0 163 163
r 0.763094 0 1 poisson 500 ------- 0 0.0 1.0 160 160
- 0.765094 0 1 poisson 500 ------- 0 0.0 1.0 164 164
r 0.767094 0 1 poisson 500 ------- 0 0.0 1.0 161 161
+ 0.767367 0 1 poisson 500 ------- 0 0.0 1.0 172 172
- 0.769094 0 1 poisson 500 ------- 0 0.0 1.0 165 165
r 0.771094 0 1 poisson 500 ------- 0 0.0 1.0 162 162
- 0.773094 0 1 poisson 500 ------- 0 0.0 1.0 166 166
r 0.775094 0 1 poisson 500 ------- 0 0.0 1.0 163 163
- 0.777094 0 1 poisson 500 ------- 0 0.0 1.0 167 167
r 0.779094 0 1 poisson 500 ------- 0 0.0 1.0 164 164
+ 0.780089 0 1 poisson 500 ------- 0 0.0 1.0 173 173
- 0.781094 0 1 poisson 500 ------- 0 0.0 1.0 168 168
r 0.783094 0 1 poisson 500 ------- 0 0.0 1.0 165 165
- 0.785094 0 1 poisson 500 ------- 0 0.0 1.0 169 169
r 0.787094 0 1 poisson 500 ------- 0 0.0 1.0 166 166
- 0.789094 0 1 poisson 500 ------- 0 0.0 1.0 170 170
+ 0.790324 0 1 poisson 500 ------- 0 0.0 1.0 174 174
r 0.791094 0 1 poisson 500 ------- 0 0.0 1.0 167 167
- 0.793094 0 1 poisson 500 ------- 0 0.0 1.0 171 171
r 0.795094 0 1 poisson 500 ------- 0 0.0 1.0 168 168
- 0.797094 0 1 poisson 500 ------- 0 0.0 1.0 172 172
+ 0.798824 0 1 poisson 500 ------- 0 0.0 1.0 175 175
r 0.799094 0 1 poisson 500 ------- 0 0.0 1.0 169 169
- 0.801094 0 1 poisson 500 ------- 0 0.0 1.0 173 173
r 0.803094 0 1 poisson 500 ------- 0 0.0 1.0 170 170
- 0.805094 0 1 poisson 500 ------- 0 0.0 1.0 174 174
r 0.807094 0 1 poisson 500 ------- 0 0.0 1.0 171 171
- 0.809094 0 1 poisson 500 ------- 0 0.0 1.0 175 175
+ 0.810506 0 1 poisson 500 ------- 0 0.0 1.0 176 176
r 0.811094 0 1 poisson 500 ------- 0 0.0 1.0 172 172
- 0.813094 0 1 poisson 500 ------- 0 0.0 1.0 176 176
+ 0.814602 0 1 poisson 500 ------- 0 0.0 1.0 177 177
r 0.815094 0 1 poisson 500 ------- 0 0.0 1.0 173 173
- 0.817094 0 1 poisson 500 ------- 0 0.0 1.0 177 177
r 0.819094 0 1 poisson 500 ------- 0 0.0 1.0 174 174
+ 0.820763 0 1 poisson 500 ------- 0 0.0 1.0 178 178
- 0.821094 0 1 poisson 500 ------- 0 0.0 1.0 178 178
r 0.823094 0 1 poisson 500 ------- 0 0.0 1.0 175 175
r 0.827094 0 1 poisson 500 ------- 0 0.0 1.0 176 176
r 0.831094 0 1 poisson 500 ------- 0 0.0 1.0 177 177
+ 0.832339 0 1 poisson 500 ------- 0 0.0 1.0 179 179
- 0.832339 0 1 poisson 500 ------- 0 0.0 1.0 179 179
+ 0.832528 0 1 poisson 500 ------- 0 0.0 1.0 180 180
+ 0.833311 0 1 poisson 500 ------- 0 0.0 1.0 181 181
+ 0.83469 0 1 poisson 500 ------- 0 0.0 1.0 182 182
r 0.835094 0 1 poisson 500 ------- 0 0.0 1.0 178 178
- 0.836339 0 1 poisson 500 ------- 0 0.0 1.0 180 180
+ 0.838063 0 1 poisson 500 ------- 0 0.0 1.0 183 183
+ 0.838808 0 1 poisson 500 ------- 0 0.0 1.0 184 184
- 0.840339 0 1 poisson 500 ------- 0 0.0 1.0 181 181
+ 0.842546 0 1 poisson 500 ------- 0 0.0 1.0 185 185
- 0.844339 0 1 poisson 500 ------- 0 0.0 1.0 182 182
+ 0.844985 0 1 poisson 500 ------- 0 0.0 1.0 186 186
r 0.846339 0 1 poisson 500 ------- 0 0.0 1.0 179 179
- 0.848339 0 1 poisson 500 ------- 0 0.0 1.0 183 183
r 0.850339 0 1 poisson 500 ------- 0 0.0 1.0 180 180
- 0.852339 0 1 poisson 500 ------- 0 0.0 1.0 184 184
+ 0.853151 0 1 poisson 500 ------- 0 0.0 1.0 187 187
r 0.854339 0 1 poisson 500 ------- 0 0.0 1.0 181 181
+ 0.855328 0 1 poisson 500 ------- 0 0.0 1.0 188 188
- 0.856339 0 1 poisson 500 ------- 0 0.0 1.0 185 185
r 0.858339 0 1 poisson 500 ------- 0 0.0 1.0 182 182
+ 0.858826 0 1 poisson 500 ------- 0 0.0 1.0 189 189
+ 0.859587 0 1 poisson 500 ------- 0 0.0 1.0 190 190
- 0.860339 0 1 poisson 500 ------- 0 0.0 1.0 186 186
+ 0.86045 0 1 poisson 500 ------- 0 0.0 1.0 191 191
+ 0.861065 0 1 poisson 500 ------- 0 0.0 1.0 192 192
r 0.862339 0 1 poisson 500 ------- 0 0.0 1.0 183 183
- 0.864339 0 1 poisson 500 ------- 0 0.0 1.0 187 187
r 0.866339 0 1 poisson 500 ------- 0 0.0 1.0 184 184
- 0.868339 0 1 poisson 500 ------- 0 0.0 1.0 188 188
r 0.870339 0 1 poisson 500 ------- 0 0.0 1.0 185 185
- 0.872339 0 1 poisson 500 ------- 0 0.0 1.0 189 189
r 0.874339 0 1 poisson 500 ------- 0 0.0 1.0 186 186
- 0.876339 0 1 poisson 500 ------- 0 0.0 1.0 190 190
r 0.878339 0 1 poisson 500 ------- 0 0.0 1.0 187 187
- 0.880339 0 1 poisson 500 ------- 0 0.0 1.0 191 191
r 0.882339 0 1 poisson 500 ------- 0 0.0 1.0 188 188
+ 0.883653 0 1 poisson 500 ------- 0 0.0 1.0 193 193
- 0.884339 0 1 poisson 500 ------- 0 0.0 1.0 192 192
+ 0.884578 0 1 poisson 500 ------- 0 0.0 1.0 194 194
r 0.886339 0 1 poisson 500 ------- 0 0.0 1.0 189 189
- 0.888339 0 1 poisson 500 ------- 0 0.0 1.0 193 193
r 0.890339 0 1 poisson 500 ------- 0 0.0 1.0 190 190