+ 0 0 1 poisson 500 ------- 0 0.0 1.0 0 0
- 0 0 1 poisson 500 ------- 0 0.0 1.0 0 0
r 0.014 0 1 poisson 500 ------- 0 0.0 1.0 0 0
+ 0.063902 0 1 poisson 500 ------- 0 0.0 1.0 1 1
- 0.063902 0 1 poisson 500 ------- 0 0.0 1.0 1 1
+ 0.0686 0 1 poisson 500 ------- 0 0.0 1.0 2 2
- 0.0686 0 1 poisson 500 ------- 0 0.0 1.0 2 2
r 0.077902 0 1 poisson 500 ------- 0 0.0 1.0 1 1
r 0.0826 0 1 poisson 500 ------- 0 0.0 1.0 2 2
+ 0.102634 0 1 poisson 500 ------- 0 0.0 1.0 3 3
- 0.102634 0 1 poisson 500 ------- 0 0.0 1.0 3 3
r 0.116634 0 1 poisson 500 ------- 0 0.0 1.0 3 3
+ 0.122066 0 1 poisson 500 ------- 0 0.0 1.0 4 4
- 0.122066 0 1 poisson 500 ------- 0 0.0 1.0 4 4
+ 0.128612 0 1 poisson 500 ------- 0 0.0 1.0 5 5
- 0.128612 0 1 poisson 500 ------- 0 0.0 1.0 5 5
+ 0.130406 0 1 poisson 500 ------- 0 0.0 1.0 6 6
- 0.132612 0 1 poisson 500 ------- 0 0.0 1.0 6 6
r 0.136066 0 1 poisson 500 ------- 0 0.0 1.0 4 4
+ 0.139699 0 1 poisson 500 ------- 0 0.0 1.0 7 7
- 0.139699 0 1 poisson 500 ------- 0 0.0 1.0 7 7
+ 0.141321 0 1 poisson 500 ------- 0 0.0 1.0 8 8
r 0.142612 0 1 poisson 500 ------- 0 0.0 1.0 5 5
- 0.143699 0 1 poisson 500 ------- 0 0.0 1.0 8 8
r 0.146612 0 1 poisson 500 ------- 0 0.0 1.0 6 6
+ 0.15292 0 1 poisson 500 ------- 0 0.0 1.0 9 9
- 0.15292 0 1 poisson 500 ------- 0 0.0 1.0 9 9
r 0.153699 0 1 poisson 500 ------- 0 0.0 1.0 7 7
+ 0.156505 0 1 poisson 500 ------- 0 0.0 1.0 10 10
- 0.15692 0 1 poisson 500 ------- 0 0.0 1.0 10 10
r 0.157699 0 1 poisson 500 ------- 0 0.0 1.0 8 8
+ 0.165898 0 1 poisson 500 ------- 0 0.0 1.0 11 11
- 0.165898 0 1 poisson 500 ------- 0 0.0 1.0 11 11
r 0.16692 0 1 poisson 500 ------- 0 0.0 1.0 9 9
+ 0.167328 0 1 poisson 500 ------- 0 0.0 1.0 12 12
- 0.169898 0 1 poisson 500 ------- 0 0.0 1.0 12 12
r 0.17092 0 1 poisson 500 ------- 0 0.0 1.0 10 10
r 0.179898 0 1 poisson 500 ------- 0 0.0 1.0 11 11
+ 0.181784 0 1 poisson 500 ------- 0 0.0 1.0 13 13
- 0.181784 0 1 poisson 500 ------- 0 0.0 1.0 13 13
r 0.183898 0 1 poisson 500 ------- 0 0.0 1.0 12 12
r 0.195784 0 1 poisson 500 ------- 0 0.0 1.0 13 13
+ 0.206995 0 1 poisson 500 ------- 0 0.0 1.0 14 14
- 0.206995 0 1 poisson 500 ------- 0 0.0 1.0 14 14
+ 0.210564 0 1 poisson 500 ------- 0 0.0 1.0 15 15
- 0.210995 0 1 poisson 500 ------- 0 0.0 1.0 15 15
r 0.220995 0 1 poisson 500 ------- 0 0.0 1.0 14 14
r 0.224995 0 1 poisson 500 ------- 0 0.0 1.0 15 15
+ 0.22795 0 1 poisson 500 ------- 0 0.0 1.0 16 16
- 0.22795 0 1 poisson 500 ------- 0 0.0 1.0 16 16
+ 0.229159 0 1 poisson 500 ------- 0 0.0 1.0 17 17
- 0.23195 0 1 poisson 500 ------- 0 0.0 1.0 17 17
+ 0.23603 0 1 poisson 500 ------- 0 0.0 1.0 18 18
- 0.23603 0 1 poisson 500 ------- 0 0.0 1.0 18 18
r 0.24195 0 1 poisson 500 ------- 0 0.0 1.0 16 16
r 0.24595 0 1 poisson 500 ------- 0 0.0 1.0 17 17
+ 0.249983 0 1 poisson 500 ------- 0 0.0 1.0 19 19
- 0.249983 0 1 poisson 500 ------- 0 0.0 1.0 19 19
r 0.25003 0 1 poisson 500 ------- 0 0.0 1.0 18 18
r 0.263983 0 1 poisson 500 ------- 0 0.0 1.0 19 19
+ 0.268886 0 1 poisson 500 ------- 0 0.0 1.0 20 20
- 0.268886 0 1 poisson 500 ------- 0 0.0 1.0 20 20
+ 0.270602 0 1 poisson 500 ------- 0 0.0 1.0 21 21
- 0.272886 0 1 poisson 500 ------- 0 0.0 1.0 21 21
+ 0.279029 0 1 poisson 500 ------- 0 0.0 1.0 22 22
- 0.279029 0 1 poisson 500 ------- 0 0.0 1.0 22 22
r 0.282886 0 1 poisson 500 ------- 0 0.0 1.0 20 20
r 0.286886 0 1 poisson 500 ------- 0 0.0 1.0 21 21
+ 0.289865 0 1 poisson 500 ------- 0 0.0 1.0 23 23
- 0.289865 0 1 poisson 500 ------- 0 0.0 1.0 23 23
r 0.293029 0 1 poisson 500 ------- 0 0.0 1.0 22 22
+ 0.297023 0 1 poisson 500 ------- 0 0.0 1.0 24 24
- 0.297023 0 1 poisson 500 ------- 0 0.0 1.0 24 24
+ 0.302275 0 1 poisson 500 ------- 0 0.0 1.0 25 25
- 0.302275 0 1 poisson 500 ------- 0 0.0 1.0 25 25
r 0.303865 0 1 poisson 500 ------- 0 0.0 1.0 23 23
+ 0.308382 0 1 poisson 500 ------- 0 0.0 1.0 26 26
- 0.308382 0 1 poisson 500 ------- 0 0.0 1.0 26 26
r 0.311023 0 1 poisson 500 ------- 0 0.0 1.0 24 24
+ 0.311324 0 1 poisson 500 ------- 0 0.0 1.0 27 27
- 0.312382 0 1 poisson 500 ------- 0 0.0 1.0 27 27
+ 0.312511 0 1 poisson 500 ------- 0 0.0 1.0 28 28
+ 0.313908 0 1 poisson 500 ------- 0 0.0 1.0 29 29
r 0.316275 0 1 poisson 500 ------- 0 0.0 1.0 25 25
- 0.316382 0 1 poisson 500 ------- 0 0.0 1.0 28 28
- 0.320382 0 1 poisson 500 ------- 0 0.0 1.0 29 29
r 0.322382 0 1 poisson 500 ------- 0 0.0 1.0 26 26
+ 0.326125 0 1 poisson 500 ------- 0 0.0 1.0 30 30
- 0.326125 0 1 poisson 500 ------- 0 0.0 1.0 30 30
r 0.326382 0 1 poisson 500 ------- 0 0.0 1.0 27 27
r 0.330382 0 1 poisson 500 ------- 0 0.0 1.0 28 28
r 0.334382 0 1 poisson 500 ------- 0 0.0 1.0 29 29
+ 0.337501 0 1 poisson 500 ------- 0 0.0 1.0 31 31
- 0.337501 0 1 poisson 500 ------- 0 0.0 1.0 31 31
+ 0.33879 0 1 poisson 500 ------- 0 0.0 1.0 32 32
r 0.340125 0 1 poisson 500 ------- 0 0.0 1.0 30 30
- 0.341501 0 1 poisson 500 ------- 0 0.0 1.0 32 32
+ 0.341907 0 1 poisson 500 ------- 0 0.0 1.0 33 33
+ 0.344079 0 1 poisson 500 ------- 0 0.0 1.0 34 34
+ 0.344878 0 1 poisson 500 ------- 0 0.0 1.0 35 35
- 0.345501 0 1 poisson 500 ------- 0 0.0 1.0 33 33
- 0.349501 0 1 poisson 500 ------- 0 0.0 1.0 34 34
r 0.351501 0 1 poisson 500 ------- 0 0.0 1.0 31 31
+ 0.352099 0 1 poisson 500 ------- 0 0.0 1.0 36 36
- 0.353501 0 1 poisson 500 ------- 0 0.0 1.0 35 35
r 0.355501 0 1 poisson 500 ------- 0 0.0 1.0 32 32
- 0.357501 0 1 poisson 500 ------- 0 0.0 1.0 36 36
r 0.359501 0 1 poisson 500 ------- 0 0.0 1.0 33 33
r 0.363501 0 1 poisson 500 ------- 0 0.0 1.0 34 34
r 0.367501 0 1 poisson 500 ------- 0 0.0 1.0 35 35
+ 0.369816 0 1 poisson 500 ------- 0 0.0 1.0 37 37
- 0.369816 0 1 poisson 500 ------- 0 0.0 1.0 37 37
r 0.371501 0 1 poisson 500 ------- 0 0.0 1.0 36 36
+ 0.377062 0 1 poisson 500 ------- 0 0.0 1.0 38 38
- 0.377062 0 1 poisson 500 ------- 0 0.0 1.0 38 38
r 0.383816 0 1 poisson 500 ------- 0 0.0 1.0 37 37
+ 0.39046 0 1 poisson 500 ------- 0 0.0 1.0 39 39
- 0.39046 0 1 poisson 500 ------- 0 0.0 1.0 39 39
r 0.391062 0 1 poisson 500 ------- 0 0.0 1.0 38 38
+ 0.391415 0 1 poisson 500 ------- 0 0.0 1.0 40 40
+ 0.391857 0 1 poisson 500 ------- 0 0.0 1.0 41 41
+ 0.392777 0 1 poisson 500 ------- 0 0.0 1.0 42 42
- 0.39446 0 1 poisson 500 ------- 0 0.0 1.0 40 40
- 0.39846 0 1 poisson 500 ------- 0 0.0 1.0 41 41
- 0.40246 0 1 poisson 500 ------- 0 0.0 1.0 42 42
r 0.40446 0 1 poisson 500 ------- 0 0.0 1.0 39 39
r 0.40846 0 1 poisson 500 ------- 0 0.0 1.0 40 40
+ 0.410289 0 1 poisson 500 ------- 0 0.0 1.0 43 43
- 0.410289 0 1 poisson 500 ------- 0 0.0 1.0 43 43
r 0.41246 0 1 poisson 500 ------- 0 0.0 1.0 41 41
r 0.41646 0 1 poisson 500 ------- 0 0.0 1.0 42 42
r 0.424289 0 1 poisson 500 ------- 0 0.0 1.0 43 43
+ 0.433012 0 1 poisson 500 ------- 0 0.0 1.0 44 44
- 0.433012 0 1 poisson 500 ------- 0 0.0 1.0 44 44
r 0.447012 0 1 poisson 500 ------- 0 0.0 1.0 44 44
+ 0.469231 0 1 poisson 500 ------- 0 0.0 1.0 45 45
- 0.469231 0 1 poisson 500 ------- 0 0.0 1.0 45 45
+ 0.473385 0 1 poisson 500 ------- 0 0.0 1.0 46 46
- 0.473385 0 1 poisson 500 ------- 0 0.0 1.0 46 46
+ 0.482118 0 1 poisson 500 ------- 0 0.0 1.0 47 47
- 0.482118 0 1 poisson 500 ------- 0 0.0 1.0 47 47
r 0.483231 0 1 poisson 500 ------- 0 0.0 1.0 45 45
r 0.487385 0 1 poisson 500 ------- 0 0.0 1.0 46 46
r 0.496118 0 1 poisson 500 ------- 0 0.0 1.0 47 47
+ 0.498876 0 1 poisson 500 ------- 0 0.0 1.0 48 48
- 0.498876 0 1 poisson 500 ------- 0 0.0 1.0 48 48
+ 0.502096 0 1 poisson 500 ------- 0 0.0 1.0 49 49
- 0.502876 0 1 poisson 500 ------- 0 0.0 1.0 49 49
r 0.512876 0 1 poisson 500 ------- 0 0.0 1.0 48 48
+ 0.512966 0 1 poisson 500 ------- 0 0.0 1.0 50 50
- 0.512966 0 1 poisson 500 ------- 0 0.0 1.0 50 50
+ 0.515834 0 1 poisson 500 ------- 0 0.0 1.0 51 51
r 0.516876 0 1 poisson 500 ------- 0 0.0 1.0 49 49
- 0.516966 0 1 poisson 500 ------- 0 0.0 1.0 51 51
+ 0.520693 0 1 poisson 500 ------- 0 0.0 1.0 52 52
- 0.520966 0 1 poisson 500 ------- 0 0.0 1.0 52 52
+ 0.521746 0 1 poisson 500 ------- 0 0.0 1.0 53 53
- 0.524966 0 1 poisson 500 ------- 0 0.0 1.0 53 53
r 0.526966 0 1 poisson 500 ------- 0 0.0 1.0 50 50
r 0.530966 0 1 poisson 500 ------- 0 0.0 1.0 51 51
+ 0.532466 0 1 poisson 500 ------- 0 0.0 1.0 54 54
- 0.532466 0 1 poisson 500 ------- 0 0.0 1.0 54 54
r 0.534966 0 1 poisson 500 ------- 0 0.0 1.0 52 52
+ 0.537179 0 1 poisson 500 ------- 0 0.0 1.0 55 55
- 0.537179 0 1 poisson 500 ------- 0 0.0 1.0 55 55
r 0.538966 0 1 poisson 500 ------- 0 0.0 1.0 53 53
+ 0.544011 0 1 poisson 500 ------- 0 0.0 1.0 56 56
- 0.544011 0 1 poisson 500 ------- 0 0.0 1.0 56 56
r 0.546466 0 1 poisson 500 ------- 0 0.0 1.0 54 54
r 0.551179 0 1 poisson 500 ------- 0 0.0 1.0 55 55
r 0.558011 0 1 poisson 500 ------- 0 0.0 1.0 56 56
+ 0.572743 0 1 poisson 500 ------- 0 0.0 1.0 57 57
- 0.572743 0 1 poisson 500 ------- 0 0.0 1.0 57 57
+ 0.581678 0 1 poisson 500 ------- 0 0.0 1.0 58 58
- 0.581678 0 1 poisson 500 ------- 0 0.0 1.0 58 58
r 0.586743 0 1 poisson 500 ------- 0 0.0 1.0 57 57
+ 0.595125 0 1 poisson 500 ------- 0 0.0 1.0 59 59
- 0.595125 0 1 poisson 500 ------- 0 0.0 1.0 59 59
r 0.595678 0 1 poisson 500 ------- 0 0.0 1.0 58 58
+ 0.597061 0 1 poisson 500 ------- 0 0.0 1.0 60 60
+ 0.597499 0 1 poisson 500 ------- 0 0.0 1.0 61 61
- 0.599125 0 1 poisson 500 ------- 0 0.0 1.0 60 60
+ 0.599562 0 1 poisson 500 ------- 0 0.0 1.0 62 62
- 0.603125 0 1 poisson 500 ------- 0 0.0 1.0 61 61
- 0.607125 0 1 poisson 500 ------- 0 0.0 1.0 62 62
r 0.609125 0 1 poisson 500 ------- 0 0.0 1.0 59 59
+ 0.612172 0 1 poisson 500 ------- 0 0.0 1.0 63 63
- 0.612172 0 1 poisson 500 ------- 0 0.0 1.0 63 63
r 0.613125 0 1 poisson 500 ------- 0 0.0 1.0 60 60
+ 0.615084 0 1 poisson 500 ------- 0 0.0 1.0 64 64
- 0.616172 0 1 poisson 500 ------- 0 0.0 1.0 64 64
r 0.617125 0 1 poisson 500 ------- 0 0.0 1.0 61 61
r 0.621125 0 1 poisson 500 ------- 0 0.0 1.0 62 62
r 0.626172 0 1 poisson 500 ------- 0 0.0 1.0 63 63
+ 0.628859 0 1 poisson 500 ------- 0 0.0 1.0 65 65
- 0.628859 0 1 poisson 500 ------- 0 0.0 1.0 65 65
+ 0.629053 0 1 poisson 500 ------- 0 0.0 1.0 66 66
r 0.630172 0 1 poisson 500 ------- 0 0.0 1.0 64 64
- 0.632859 0 1 poisson 500 ------- 0 0.0 1.0 66 66
r 0.642859 0 1 poisson 500 ------- 0 0.0 1.0 65 65
r 0.646859 0 1 poisson 500 ------- 0 0.0 1.0 66 66
+ 0.648197 0 1 poisson 500 ------- 0 0.0 1.0 67 67
- 0.648197 0 1 poisson 500 ------- 0 0.0 1.0 67 67
+ 0.653876 0 1 poisson 500 ------- 0 0.0 1.0 68 68
- 0.653876 0 1 poisson 500 ------- 0 0.0 1.0 68 68
r 0.662197 0 1 poisson 500 ------- 0 0.0 1.0 67 67
r 0.667876 0 1 poisson 500 ------- 0 0.0 1.0 68 68
+ 0.67782 0 1 poisson 500 ------- 0 0.0 1.0 69 69
- 0.67782 0 1 poisson 500 ------- 0 0.0 1.0 69 69
+ 0.678979 0 1 poisson 500 ------- 0 0.0 1.0 70 70
- 0.68182 0 1 poisson 500 ------- 0 0.0 1.0 70 70
+ 0.684015 0 1 poisson 500 ------- 0 0.0 1.0 71 71
- 0.68582 0 1 poisson 500 ------- 0 0.0 1.0 71 71
+ 0.686477 0 1 poisson 500 ------- 0 0.0 1.0 72 72
- 0.68982 0 1 poisson 500 ------- 0 0.0 1.0 72 72
r 0.69182 0 1 poisson 500 ------- 0 0.0 1.0 69 69
+ 0.693394 0 1 poisson 500 ------- 0 0.0 1.0 73 73
- 0.69382 0 1 poisson 500 ------- 0 0.0 1.0 73 73
r 0.69582 0 1 poisson 500 ------- 0 0.0 1.0 70 70
r 0.69982 0 1 poisson 500 ------- 0 0.0 1.0 71 71
r 0.70382 0 1 poisson 500 ------- 0 0.0 1.0 72 72
r 0.70782 0 1 poisson 500 ------- 0 0.0 1.0 73 73
+ 0.712819 0 1 poisson 500 ------- 0 0.0 1.0 74 74
- 0.712819 0 1 poisson 500 ------- 0 0.0 1.0 74 74
+ 0.714461 0 1 poisson 500 ------- 0 0.0 1.0 75 75
+ 0.715279 0 1 poisson 500 ------- 0 0.0 1.0 76 76
- 0.716819 0 1 poisson 500 ------- 0 0.0 1.0 75 75
+ 0.717818 0 1 poisson 500 ------- 0 0.0 1.0 77 77
+ 0.718889 0 1 poisson 500 ------- 0 0.0 1.0 78 78
- 0.720819 0 1 poisson 500 ------- 0 0.0 1.0 76 76
+ 0.723163 0 1 poisson 500 ------- 0 0.0 1.0 79 79
- 0.724819 0 1 poisson 500 ------- 0 0.0 1.0 77 77
+ 0.725617 0 1 poisson 500 ------- 0 0.0 1.0 80 80
r 0.726819 0 1 poisson 500 ------- 0 0.0 1.0 74 74
+ 0.727382 0 1 poisson 500 ------- 0 0.0 1.0 81 81
- 0.728819 0 1 poisson 500 ------- 0 0.0 1.0 78 78
r 0.730819 0 1 poisson 500 ------- 0 0.0 1.0 75 75
- 0.732819 0 1 poisson 500 ------- 0 0.0 1.0 79 79
r 0.734819 0 1 poisson 500 ------- 0 0.0 1.0 76 76
+ 0.735644 0 1 poisson 500 ------- 0 0.0 1.0 82 82
- 0.736819 0 1 poisson 500 ------- 0 0.0 1.0 80 80
r 0.738819 0 1 poisson 500 ------- 0 0.0 1.0 77 77
+ 0.740305 0 1 poisson 500 ------- 0 0.0 1.0 83 83
- 0.740819 0 1 poisson 500 ------- 0 0.0 1.0 81 81
+ 0.741936 0 1 poisson 500 ------- 0 0.0 1.0 84 84
r 0.742819 0 1 poisson 500 ------- 0 0.0 1.0 78 78
+ 0.743885 0 1 poisson 500 ------- 0 0.0 1.0 85 85
- 0.744819 0 1 poisson 500 ------- 0 0.0 1.0 82 82
r 0.746819 0 1 poisson 500 ------- 0 0.0 1.0 79 79
+ 0.747166 0 1 poisson 500 ------- 0 0.0 1.0 86 86
- 0.748819 0 1 poisson 500 ------- 0 0.0 1.0 83 83
r 0.750819 0 1 poisson 500 ------- 0 0.0 1.0 80 80
- 0.752819 0 1 poisson 500 ------- 0 0.0 1.0 84 84
r 0.754819 0 1 poisson 500 ------- 0 0.0 1.0 81 81
- 0.756819 0 1 poisson 500 ------- 0 0.0 1.0 85 85
r 0.758819 0 1 poisson 500 ------- 0 0.0 1.0 82 82
- 0.760819 0 1 poisson 500 ------- 0 0.0 1.0 86 86
+ 0.762344 0 1 poisson 500 ------- 0 0.0 1.0 87 87
r 0.762819 0 1 poisson 500 ------- 0 0.0 1.0 83 83
- 0.764819 0 1 poisson 500 ------- 0 0.0 1.0 87 87
r 0.766819 0 1 poisson 500 ------- 0 0.0 1.0 84 84
+ 0.769548 0 1 poisson 500 ------- 0 0.0 1.0 88 88
- 0.769548 0 1 poisson 500 ------- 0 0.0 1.0 88 88
r 0.770819 0 1 poisson 500 ------- 0 0.0 1.0 85 85
+ 0.774387 0 1 poisson 500 ------- 0 0.0 1.0 89 89
- 0.774387 0 1 poisson 500 ------- 0 0.0 1.0 89 89
r 0.774819 0 1 poisson 500 ------- 0 0.0 1.0 86 86
r 0.778819 0 1 poisson 500 ------- 0 0.0 1.0 87 87
+ 0.782264 0 1 poisson 500 ------- 0 0.0 1.0 90 90
- 0.782264 0 1 poisson 500 ------- 0 0.0 1.0 90 90
r 0.783548 0 1 poisson 500 ------- 0 0.0 1.0 88 88
r 0.788387 0 1 poisson 500 ------- 0 0.0 1.0 89 89
r 0.796264 0 1 poisson 500 ------- 0 0.0 1.0 90 90
+ 0.85149 0 1 poisson 500 ------- 0 0.0 1.0 91 91
- 0.85149 0 1 poisson 500 ------- 0 0.0 1.0 91 91
r 0.86549 0 1 poisson 500 ------- 0 0.0 1.0 91 91
+ 0.87136 0 1 poisson 500 ------- 0 0.0 1.0 92 92
- 0.87136 0 1 poisson 500 ------- 0 0.0 1.0 92 92
+ 0.880176 0 1 poisson 500 ------- 0 0.0 1.0 93 93
- 0.880176 0 1 poisson 500 ------- 0 0.0 1.0 93 93
+ 0.883079 0 1 poisson 500 ------- 0 0.0 1.0 94 94
+ 0.883816 0 1 poisson 500 ------- 0 0.0 1.0 95 95
- 0.884176 0 1 poisson 500 ------- 0 0.0 1.0 94 94
r 0.88536 0 1 poisson 500 ------- 0 0.0 1.0 92 92
- 0.888176 0 1 poisson 500 ------- 0 0.0 1.0 95 95
r 0.894176 0 1 poisson 500 ------- 0 0.0 1.0 93 93
r 0.898176 0 1 poisson 500 ------- 0 0.0 1.0 94 94
r 0.902176 0 1 poisson 500 ------- 0 0.0 1.0 95 95
+ 0.911157 0 1 poisson 500 ------- 0 0.0 1.0 96 96
- 0.911157 0 1 poisson 500 ------- 0 0.0 1.0 96 96
+ 0.919214 0 1 poisson 500 ------- 0 0.0 1.0 97 97
- 0.919214 0 1 poisson 500 ------- 0 0.0 1.0 97 97
r 0.925157 0 1 poisson 500 ------- 0 0.0 1.0 96 96
+ 0.928714 0 1 poisson 500 ------- 0 0.0 1.0 98 98
- 0.928714 0 1 poisson 500 ------- 0 0.0 1.0 98 98
r 0.933214 0 1 poisson 500 ------- 0 0.0 1.0 97 97
r 0.942714 0 1 poisson 500 ------- 0 0.0 1.0 98 98
+ 0.974304 0 1 poisson 500 ------- 0 0.0 1.0 99 99
- 0.974304 0 1 poisson 500 ------- 0 0.0 1.0 99 99
+ 0.983376 0 1 poisson 500 ------- 0 0.0 1.0 100 100
- 0.983376 0 1 poisson 500 ------- 0 0.0 1.0 100 100
+ 0.984387 0 1 poisson 500 ------- 0 0.0 1.0 101 101
+ 0.98541 0 1 poisson 500 ------- 0 0.0 1.0 102 102
+ 0.987137 0 1 poisson 500 ------- 0 0.0 1.0 103 103
- 0.987376 0 1 poisson 500 ------- 0 0.0 1.0 101 101
r 0.988304 0 1 poisson 500 ------- 0 0.0 1.0 99 99
- 0.991376 0 1 poisson 500 ------- 0 0.0 1.0 102 102
- 0.995376 0 1 poisson 500 ------- 0 0.0 1.0 103 103
r 0.997376 0 1 poisson 500 ------- 0 0.0 1.0 100 100
+ 1.001256 0 1 poisson 500 ------- 0 0.0 1.0 104 104
- 1.001256 0 1 poisson 500 ------- 0 0.0 1.0 104 104
r 1.001376 0 1 poisson 500 ------- 0 0.0 1.0 101 101
r 1.005376 0 1 poisson 500 ------- 0 0.0 1.0 102 102
r 1.009376 0 1 poisson 500 ------- 0 0.0 1.0 103 103
r 1.015256 0 1 poisson 500 ------- 0 0.0 1.0 104 104
+ 1.028806 0 1 poisson 500 ------- 0 0.0 1.0 105 105
- 1.028806 0 1 poisson 500 ------- 0 0.0 1.0 105 105
+ 1.031052 0 1 poisson 500 ------- 0 0.0 1.0 106 106
- 1.032806 0 1 poisson 500 ------- 0 0.0 1.0 106 106
+ 1.034937 0 1 poisson 500 ------- 0 0.0 1.0 107 107
- 1.036806 0 1 poisson 500 ------- 0 0.0 1.0 107 107
+ 1.036826 0 1 poisson 500 ------- 0 0.0 1.0 108 108
- 1.040806 0 1 poisson 500 ------- 0 0.0 1.0 108 108
+ 1.042046 0 1 poisson 500 ------- 0 0.0 1.0 109 109
r 1.042806 0 1 poisson 500 ------- 0 0.0 1.0 105 105
- 1.044806 0 1 poisson 500 ------- 0 0.0 1.0 109 109
r 1.046806 0 1 poisson 500 ------- 0 0.0 1.0 106 106
+ 1.048412 0 1 poisson 500 ------- 0 0.0 1.0 110 110
- 1.048806 0 1 poisson 500 ------- 0 0.0 1.0 110 110
r 1.050806 0 1 poisson 500 ------- 0 0.0 1.0 107 107
r 1.054806 0 1 poisson 500 ------- 0 0.0 1.0 108 108
r 1.058806 0 1 poisson 500 ------- 0 0.0 1.0 109 109
+ 1.060988 0 1 poisson 500 ------- 0 0.0 1.0 111 111
- 1.060988 0 1 poisson 500 ------- 0 0.0 1.0 111 111
r 1.062806 0 1 poisson 500 ------- 0 0.0 1.0 110 110
r 1.074988 0 1 poisson 500 ------- 0 0.0 1.0 111 111
+ 1.094071 0 1 poisson 500 ------- 0 0.0 1.0 112 112
- 1.094071 0 1 poisson 500 ------- 0 0.0 1.0 112 112
+ 1.100641 0 1 poisson 500 ------- 0 0.0 1.0 113 113
- 1.100641 0 1 poisson 500 ------- 0 0.0 1.0 113 113
+ 1.107259 0 1 poisson 500 ------- 0 0.0 1.0 114 114
- 1.107259 0 1 poisson 500 ------- 0 0.0 1.0 114 114
r 1.108071 0 1 poisson 500 ------- 0 0.0 1.0 112 112
r 1.114641 0 1 poisson 500 ------- 0 0.0 1.0 113 113
+ 1.116099 0 1 poisson 500 ------- 0 0.0 1.0 115 115
- 1.116099 0 1 poisson 500 ------- 0 0.0 1.0 115 115
r 1.121259 0 1 poisson 500 ------- 0 0.0 1.0 114 114
r 1.130099 0 1 poisson 500 ------- 0 0.0 1.0 115 115
+ 1.133116 0 1 poisson 500 ------- 0 0.0 1.0 116 116
- 1.133116 0 1 poisson 500 ------- 0 0.0 1.0 116 116
+ 1.133964 0 1 poisson 500 ------- 0 0.0 1.0 117 117
- 1.137116 0 1 poisson 500 ------- 0 0.0 1.0 117 117
+ 1.146293 0 1 poisson 500 ------- 0 0.0 1.0 118 118
- 1.146293 0 1 poisson 500 ------- 0 0.0 1.0 118 118
r 1.147116 0 1 poisson 500 ------- 0 0.0 1.0 116 116
r 1.151116 0 1 poisson 500 ------- 0 0.0 1.0 117 117
+ 1.153037 0 1 poisson 500 ------- 0 0.0 1.0 119 119
- 1.153037 0 1 poisson 500 ------- 0 0.0 1.0 119 119
+ 1.159921 0 1 poisson 500 ------- 0 0.0 1.0 120 120
- 1.159921 0 1 poisson 500 ------- 0 0.0 1.0 120 120
r 1.160293 0 1 poisson 500 ------- 0 0.0 1.0 118 118
r 1.167037 0 1 poisson 500 ------- 0 0.0 1.0 119 119
+ 1.167104 0 1 poisson 500 ------- 0 0.0 1.0 121 121
- 1.167104 0 1 poisson 500 ------- 0 0.0 1.0 121 121
+ 1.16956 0 1 poisson 500 ------- 0 0.0 1.0 122 122
- 1.171104 0 1 poisson 500 ------- 0 0.0 1.0 122 122
r 1.173921 0 1 poisson 500 ------- 0 0.0 1.0 120 120
+ 1.175352 0 1 poisson 500 ------- 0 0.0 1.0 123 123
- 1.175352 0 1 poisson 500 ------- 0 0.0 1.0 123 123
+ 1.176223 0 1 poisson 500 ------- 0 0.0 1.0 124 124
- 1.179352 0 1 poisson 500 ------- 0 0.0 1.0 124 124
+ 1.180011 0 1 poisson 500 ------- 0 0.0 1.0 125 125
r 1.181104 0 1 poisson 500 ------- 0 0.0 1.0 121 121
+ 1.181303 0 1 poisson 500 ------- 0 0.0 1.0 126 126
- 1.183352 0 1 poisson 500 ------- 0 0.0 1.0 125 125
r 1.185104 0 1 poisson 500 ------- 0 0.0 1.0 122 122
- 1.187352 0 1 poisson 500 ------- 0 0.0 1.0 126 126
r 1.189352 0 1 poisson 500 ------- 0 0.0 1.0 123 123
r 1.193352 0 1 poisson 500 ------- 0 0.0 1.0 124 124
+ 1.196039 0 1 poisson 500 ------- 0 0.0 1.0 127 127
- 1.196039 0 1 poisson 500 ------- 0 0.0 1.0 127 127
r 1.197352 0 1 poisson 500 ------- 0 0.0 1.0 125 125
r 1.201352 0 1 poisson 500 ------- 0 0.0 1.0 126 126
+ 1.207606 0 1 poisson 500 ------- 0 0.0 1.0 128 128
- 1.207606 0 1 poisson 500 ------- 0 0.0 1.0 128 128
r 1.210039 0 1 poisson 500 ------- 0 0.0 1.0 127 127
r 1.221606 0 1 poisson 500 ------- 0 0.0 1.0 128 128
+ 1.229536 0 1 poisson 500 ------- 0 0.0 1.0 129 129
- 1.229536 0 1 poisson 500 ------- 0 0.0 1.0 129 129
+ 1.243403 0 1 poisson 500 ------- 0 0.0 1.0 130 130
- 1.243403 0 1 poisson 500 ------- 0 0.0 1.0 130 130
r 1.243536 0 1 poisson 500 ------- 0 0.0 1.0 129 129
+ 1.244505 0 1 poisson 500 ------- 0 0.0 1.0 131 131
- 1.247403 0 1 poisson 500 ------- 0 0.0 1.0 131 131
r 1.257403 0 1 poisson 500 ------- 0 0.0 1.0 130 130
r 1.261403 0 1 poisson 500 ------- 0 0.0 1.0 131 131
+ 1.270355 0 1 poisson 500 ------- 0 0.0 1.0 132 132
- 1.270355 0 1 poisson 500 ------- 0 0.0 1.0 132 132
+ 1.274734 0 1 poisson 500 ------- 0 0.0 1.0 133 133
- 1.274734 0 1 poisson 500 ------- 0 0.0 1.0 133 133
+ 1.277517 0 1 poisson 500 ------- 0 0.0 1.0 134 134
- 1.278734 0 1 poisson 500 ------- 0 0.0 1.0 134 134
r 1.284355 0 1 poisson 500 ------- 0 0.0 1.0 132 132
r 1.288734 0 1 poisson 500 ------- 0 0.0 1.0 133 133
+ 1.289385 0 1 poisson 500 ------- 0 0.0 1.0 135 135
- 1.289385 0 1 poisson 500 ------- 0 0.0 1.0 135 135
+ 1.290873 0 1 poisson 500 ------- 0 0.0 1.0 136 136
r 1.292734 0 1 poisson 500 ------- 0 0.0 1.0 134 134
- 1.293385 0 1 poisson 500 ------- 0 0.0 1.0 136 136
r 1.303385 0 1 poisson 500 ------- 0 0.0 1.0 135 135
r 1.307385 0 1 poisson 500 ------- 0 0.0 1.0 136 136
+ 1.313556 0 1 poisson 500 ------- 0 0.0 1.0 137 137
- 1.313556 0 1 poisson 500 ------- 0 0.0 1.0 137 137
+ 1.322188 0 1 poisson 500 ------- 0 0.0 1.0 138 138
- 1.322188 0 1 poisson 500 ------- 0 0.0 1.0 138 138
+ 1.324033 0 1 poisson 500 ------- 0 0.0 1.0 139 139
- 1.326188 0 1 poisson 500 ------- 0 0.0 1.0 139 139
r 1.327556 0 1 poisson 500 ------- 0 0.0 1.0 137 137
+ 1.32764 0 1 poisson 500 ------- 0 0.0 1.0 140 140
- 1.330188 0 1 poisson 500 ------- 0 0.0 1.0 140 140
+ 1.334328 0 1 poisson 500 ------- 0 0.0 1.0 141 141
- 1.334328 0 1 poisson 500 ------- 0 0.0 1.0 141 141
r 1.336188 0 1 poisson 500 ------- 0 0.0 1.0 138 138
r 1.340188 0 1 poisson 500 ------- 0 0.0 1.0 139 139
r 1.344188 0 1 poisson 500 ------- 0 0.0 1.0 140 140
+ 1.346121 0 1 poisson 500 ------- 0 0.0 1.0 142 142
- 1.346121 0 1 poisson 500 ------- 0 0.0 1.0 142 142
r 1.348328 0 1 poisson 500 ------- 0 0.0 1.0 141 141
+ 1.352656 0 1 poisson 500 ------- 0 0.0 1.0 143 143
- 1.352656 0 1 poisson 500 ------- 0 0.0 1.0 143 143
+ 1.353151 0 1 poisson 500 ------- 0 0.0 1.0 144 144
- 1.356656 0 1 poisson 500 ------- 0 0.0 1.0 144 144
+ 1.359364 0 1 poisson 500 ------- 0 0.0 1.0 145 145
r 1.360121 0 1 poisson 500 ------- 0 0.0 1.0 142 142
+ 1.360194 0 1 poisson 500 ------- 0 0.0 1.0 146 146
+ 1.36054 0 1 poisson 500 ------- 0 0.0 1.0 147 147
- 1.360656 0 1 poisson 500 ------- 0 0.0 1.0 145 145
+ 1.361332 0 1 poisson 500 ------- 0 0.0 1.0 148 148
- 1.364656 0 1 poisson 500 ------- 0 0.0 1.0 146 146
r 1.366656 0 1 poisson 500 ------- 0 0.0 1.0 143 143
- 1.368656 0 1 poisson 500 ------- 0 0.0 1.0 147 147
r 1.370656 0 1 poisson 500 ------- 0 0.0 1.0 144 144
- 1.372656 0 1 poisson 500 ------- 0 0.0 1.0 148 148
r 1.374656 0 1 poisson 500 ------- 0 0.0 1.0 145 145
+ 1.376414 0 1 poisson 500 ------- 0 0.0 1.0 149 149
- 1.376656 0 1 poisson 500 ------- 0 0.0 1.0 149 149
+ 1.376866 0 1 poisson 500 ------- 0 0.0 1.0 150 150
r 1.378656 0 1 poisson 500 ------- 0 0.0 1.0 146 146
- 1.380656 0 1 poisson 500 ------- 0 0.0 1.0 150 150
+ 1.381792 0 1 poisson 500 ------- 0 0.0 1.0 151 151
r 1.382656 0 1 poisson 500 ------- 0 0.0 1.0 147 147
- 1.384656 0 1 poisson 500 ------- 0 0.0 1.0 151 151
r 1.386656 0 1 poisson 500 ------- 0 0.0 1.0 148 148
+ 1.386791 0 1 poisson 500 ------- 0 0.0 1.0 152 152
- 1.388656 0 1 poisson 500 ------- 0 0.0 1.0 152 152
r 1.390656 0 1 poisson 500 ------- 0 0.0 1.0 149 149
r 1.394656 0 1 poisson 500 ------- 0 0.0 1.0 150 150
r 1.398656 0 1 poisson 500 ------- 0 0.0 1.0 151 151
r 1.402656 0 1 poisson 500 ------- 0 0.0 1.0 152 152
+ 1.408477 0 1 poisson 500 ------- 0 0.0 1.0 153 153
- 1.408477 0 1 poisson 500 ------- 0 0.0 1.0 153 153
+ 1.408706 0 1 poisson 500 ------- 0 0.0 1.0 154 154
- 1.412477 0 1 poisson 500 ------- 0 0.0 1.0 154 154
+ 1.413967 0 1 poisson 500 ------- 0 0.0 1.0 155 155
+ 1.414981 0 1 poisson 500 ------- 0 0.0 1.0 156 156
- 1.416477 0 1 poisson 500 ------- 0 0.0 1.0 155 155
+ 1.417501 0 1 poisson 500 ------- 0 0.0 1.0 157 157
- 1.420477 0 1 poisson 500 ------- 0 0.0 1.0 156 156
r 1.422477 0 1 poisson 500 ------- 0 0.0 1.0 153 153
- 1.424477 0 1 poisson 500 ------- 0 0.0 1.0 157 157
r 1.426477 0 1 poisson 500 ------- 0 0.0 1.0 154 154
+ 1.42819 0 1 poisson 500 ------- 0 0.0 1.0 158 158
- 1.428477 0 1 poisson 500 ------- 0 0.0 1.0 158 158
r 1.430477 0 1 poisson 500 ------- 0 0.0 1.0 155 155
+ 1.43407 0 1 poisson 500 ------- 0 0.0 1.0 159 159
- 1.43407 0 1 poisson 500 ------- 0 0.0 1.0 159 159
r 1.434477 0 1 poisson 500 ------- 0 0.0 1.0 156 156
+ 1.436375 0 1 poisson 500 ------- 0 0.0 1.0 160 160
- 1.43807 0 1 poisson 500 ------- 0 0.0 1.0 160 160
r 1.438477 0 1 poisson 500 ------- 0 0.0 1.0 157 157
r 1.442477 0 1 poisson 500 ------- 0 0.0 1.0 158 158
r 1.44807 0 1 poisson 500 ------- 0 0.0 1.0 159 159
+ 1.449018 0 1 poisson 500 ------- 0 0.0 1.0 161 161
- 1.449018 0 1 poisson 500 ------- 0 0.0 1.0 161 161
r 1.45207 0 1 poisson 500 ------- 0 0.0 1.0 160 160
+ 1.452158 0 1 poisson 500 ------- 0 0.0 1.0 162 162
- 1.453018 0 1 poisson 500 ------- 0 0.0 1.0 162 162
+ 1.455516 0 1 poisson 500 ------- 0 0.0 1.0 163 163
- 1.457018 0 1 poisson 500 ------- 0 0.0 1.0 163 163
r 1.463018 0 1 poisson 500 ------- 0 0.0 1.0 161 161
r 1.467018 0 1 poisson 500 ------- 0 0.0 1.0 162 162
+ 1.470084 0 1 poisson 500 ------- 0 0.0 1.0 164 164
- 1.470084 0 1 poisson 500 ------- 0 0.0 1.0 164 164
r 1.471018 0 1 poisson 500 ------- 0 0.0 1.0 163 163
+ 1.480716 0 1 poisson 500 ------- 0 0.0 1.0 165 165
- 1.480716 0 1 poisson 500 ------- 0 0.0 1.0 165 165
r 1.484084 0 1 poisson 500 ------- 0 0.0 1.0 164 164
+ 1.488485 0 1 poisson 500 ------- 0 0.0 1.0 166 166
- 1.488485 0 1 poisson 500 ------- 0 0.0 1.0 166 166
+ 1.492417 0 1 poisson 500 ------- 0 0.0 1.0 167 167
- 1.492485 0 1 poisson 500 ------- 0 0.0 1.0 167 167
r 1.494716 0 1 poisson 500 ------- 0 0.0 1.0 165 165
+ 1.495797 0 1 poisson 500 ------- 0 0.0 1.0 168 168
- 1.496485 0 1 poisson 500 ------- 0 0.0 1.0 168 168
+ 1.497054 0 1 poisson 500 ------- 0 0.0 1.0 169 169
- 1.500485 0 1 poisson 500 ------- 0 0.0 1.0 169 169
r 1.502485 0 1 poisson 500 ------- 0 0.0 1.0 166 166
r 1.506485 0 1 poisson 500 ------- 0 0.0 1.0 167 167
+ 1.507226 0 1 poisson 500 ------- 0 0.0 1.0 170 170
- 1.507226 0 1 poisson 500 ------- 0 0.0 1.0 170 170
r 1.510485 0 1 poisson 500 ------- 0 0.0 1.0 168 168
r 1.514485 0 1 poisson 500 ------- 0 0.0 1.0 169 169
r 1.521226 0 1 poisson 500 ------- 0 0.0 1.0 170 170
+ 1.52157 0 1 poisson 500 ------- 0 0.0 1.0 171 171
- 1.52157 0 1 poisson 500 ------- 0 0.0 1.0 171 171
+ 1.534735 0 1 poisson 500 ------- 0 0.0 1.0 172 172
- 1.534735 0 1 poisson 500 ------- 0 0.0 1.0 172 172
r 1.53557 0 1 poisson 500 ------- 0 0.0 1.0 171 171
r 1.548735 0 1 poisson 500 ------- 0 0.0 1.0 172 172
+ 1.560177 0 1 poisson 500 ------- 0 0.0 1.0 173 173
- 1.560177 0 1 poisson 500 ------- 0 0.0 1.0 173 173
r 1.574177 0 1 poisson 500 ------- 0 0.0 1.0 173 173
+ 1.580647 0 1 poisson 500 ------- 0 0.0 1.0 174 174
- 1.580647 0 1 poisson 500 ------- 0 0.0 1.0 174 174
r 1.594647 0 1 poisson 500 ------- 0 0.0 1.0 174 174
+ 1.597649 0 1 poisson 500 ------- 0 0.0 1.0 175 175
- 1.597649 0 1 poisson 500 ------- 0 0.0 1.0 175 175
r 1.611649 0 1 poisson 500 ------- 0 0.0 1.0 175 175
+ 1.621011 0 1 poisson 500 ------- 0 0.0 1.0 176 176
- 1.621011 0 1 poisson 500 ------- 0 0.0 1.0 176 176
+ 1.629204 0 1 poisson 500 ------- 0 0.0 1.0 177 177
- 1.629204 0 1 poisson 500 ------- 0 0.0 1.0 177 177
r 1.635011 0 1 poisson 500 ------- 0 0.0 1.0 176 176
+ 1.641525 0 1 poisson 500 ------- 0 0.0 1.0 178 178
- 1.641525 0 1 poisson 500 ------- 0 0.0 1.0 178 178
r 1.643204 0 1 poisson 500 ------- 0 0.0 1.0 177 177
r 1.655525 0 1 poisson 500 ------- 0 0.0 1.0 178 178
+ 1.664678 0 1 poisson 500 ------- 0 0.0 1.0 179 179
- 1.664678 0 1 poisson 500 ------- 0 0.0 1.0 179 179
+ 1.665056 0 1 poisson 500 ------- 0 0.0 1.0 180 180
+ 1.666622 0 1 poisson 500 ------- 0 0.0 1.0 181 181
- 1.668678 0 1 poisson 500 ------- 0 0.0 1.0 180 180
+ 1.669381 0 1 poisson 500 ------- 0 0.0 1.0 182 182
- 1.672678 0 1 poisson 500 ------- 0 0.0 1.0 181 181
+ 1.676126 0 1 poisson 500 ------- 0 0.0 1.0 183 183
- 1.676678 0 1 poisson 500 ------- 0 0.0 1.0 182 182
+ 1.677616 0 1 poisson 500 ------- 0 0.0 1.0 184 184
r 1.678678 0 1 poisson 500 ------- 0 0.0 1.0 179 179
- 1.680678 0 1 poisson 500 ------- 0 0.0 1.0 183 183
r 1.682678 0 1 poisson 500 ------- 0 0.0 1.0 180 180
- 1.684678 0 1 poisson 500 ------- 0 0.0 1.0 184 184
+ 1.685091 0 1 poisson 500 ------- 0 0.0 1.0 185 185
r 1.686678 0 1 poisson 500 ------- 0 0.0 1.0 181 181
- 1.688678 0 1 poisson 500 ------- 0 0.0 1.0 185 185
+ 1.68997 0 1 poisson 500 ------- 0 0.0 1.0 186 186
r 1.690678 0 1 poisson 500 ------- 0 0.0 1.0 182 182
- 1.692678 0 1 poisson 500 ------- 0 0.0 1.0 186 186
r 1.694678 0 1 poisson 500 ------- 0 0.0 1.0 183 183
r 1.698678 0 1 poisson 500 ------- 0 0.0 1.0 184 184
r 1.702678 0 1 poisson 500 ------- 0 0.0 1.0 185 185
+ 1.706301 0 1 poisson 500 ------- 0 0.0 1.0 187 187
- 1.706301 0 1 poisson 500 ------- 0 0.0 1.0 187 187
r 1.706678 0 1 poisson 500 ------- 0 0.0 1.0 186 186
+ 1.710656 0 1 poisson 500 ------- 0 0.0 1.0 188 188
- 1.710656 0 1 poisson 500 ------- 0 0.0 1.0 188 188
+ 1.717653 0 1 poisson 500 ------- 0 0.0 1.0 189 189
- 1.717653 0 1 poisson 500 ------- 0 0.0 1.0 189 189
+ 1.719173 0 1 poisson 500 ------- 0 0.0 1.0 190 190
r 1.720301 0 1 poisson 500 ------- 0 0.0 1.0 187 187
+ 1.7209 0 1 poisson 500 ------- 0 0.0 1.0 191 191
- 1.721653 0 1 poisson 500 ------- 0 0.0 1.0 190 190
+ 1.722131 0 1 poisson 500 ------- 0 0.0 1.0 192 192
r 1.724656 0 1 poisson 500 ------- 0 0.0 1.0 188 188
- 1.725653 0 1 poisson 500 ------- 0 0.0 1.0 191 191
- 1.729653 0 1 poisson 500 ------- 0 0.0 1.0 192 192
r 1.731653 0 1 poisson 500 ------- 0 0.0 1.0 189 189
r 1.735653 0 1 poisson 500 ------- 0 0.0 1.0 190 190
r 1.739653 0 1 poisson 500 ------- 0 0.0 1.0 191 191
r 1.743653 0 1 poisson 500 ------- 0 0.0 1.0 192 192