V -t * -v 1.0a5 -a 0
A -t * -n 1 -p 0 -o 0xffffffff -c 31 -a 1
A -t * -h 1 -m 2147483647 -s 0
n -t * -a 0 -s 0 -S UP -v circle -c black -i black
n -t * -a 1 -s 1 -S UP -v circle -c black -i black
l -t * -s 0 -d 1 -S UP -r 1000000 -D 0.01 -c black -o right
q -t * -s 1 -d 0 -a 0.5
q -t * -s 0 -d 1 -a 0.5
+ -t 0 -s 0 -d 1 -p poisson -e 500 -c 0 -i 0 -a 0 -x {0.0 1.0 0 ------- null}
- -t 0 -s 0 -d 1 -p poisson -e 500 -c 0 -i 0 -a 0 -x {0.0 1.0 0 ------- null}
h -t 0 -s 0 -d 1 -p poisson -e 500 -c 0 -i 0 -a 0 -x {0.0 1.0 -1 ------- null}
+ -t 0.0106504122313879 -s 0 -d 1 -p poisson -e 500 -c 0 -i 1 -a 0 -x {0.0 1.0 1 ------- null}
- -t 0.0106504122313879 -s 0 -d 1 -p poisson -e 500 -c 0 -i 1 -a 0 -x {0.0 1.0 1 ------- null}
h -t 0.0106504122313879 -s 0 -d 1 -p poisson -e 500 -c 0 -i 1 -a 0 -x {0.0 1.0 -1 ------- null}
+ -t 0.0114333476278516 -s 0 -d 1 -p poisson -e 500 -c 0 -i 2 -a 0 -x {0.0 1.0 2 ------- null}
r -t 0.014 -s 0 -d 1 -p poisson -e 500 -c 0 -i 0 -a 0 -x {0.0 1.0 0 ------- null}
- -t 0.0146504122313879 -s 0 -d 1 -p poisson -e 500 -c 0 -i 2 -a 0 -x {0.0 1.0 2 ------- null}
h -t 0.0146504122313879 -s 0 -d 1 -p poisson -e 500 -c 0 -i 2 -a 0 -x {0.0 1.0 -1 ------- null}
+ -t 0.0171055944988376 -s 0 -d 1 -p poisson -e 500 -c 0 -i 3 -a 0 -x {0.0 1.0 3 ------- null}
- -t 0.0186504122313879 -s 0 -d 1 -p poisson -e 500 -c 0 -i 3 -a 0 -x {0.0 1.0 3 ------- null}
h -t 0.0186504122313879 -s 0 -d 1 -p poisson -e 500 -c 0 -i 3 -a 0 -x {0.0 1.0 -1 ------- null}
+ -t 0.0203442950895113 -s 0 -d 1 -p poisson -e 500 -c 0 -i 4 -a 0 -x {0.0 1.0 4 ------- null}
+ -t 0.0214353848551493 -s 0 -d 1 -p poisson -e 500 -c 0 -i 5 -a 0 -x {0.0 1.0 5 ------- null}
+ -t 0.0217343179112276 -s 0 -d 1 -p poisson -e 500 -c 0 -i 6 -a 0 -x {0.0 1.0 6 ------- null}
- -t 0.0226504122313879 -s 0 -d 1 -p poisson -e 500 -c 0 -i 4 -a 0 -x {0.0 1.0 4 ------- null}
h -t 0.0226504122313879 -s 0 -d 1 -p poisson -e 500 -c 0 -i 4 -a 0 -x {0.0 1.0 -1 ------- null}
+ -t 0.0232832168862057 -s 0 -d 1 -p poisson -e 500 -c 0 -i 7 -a 0 -x {0.0 1.0 7 ------- null}
+ -t 0.0235535604832409 -s 0 -d 1 -p poisson -e 500 -c 0 -i 8 -a 0 -x {0.0 1.0 8 ------- null}
r -t 0.0246504122313879 -s 0 -d 1 -p poisson -e 500 -c 0 -i 1 -a 0 -x {0.0 1.0 1 ------- null}
+ -t 0.0254867149837507 -s 0 -d 1 -p poisson -e 500 -c 0 -i 9 -a 0 -x {0.0 1.0 9 ------- null}
+ -t 0.0260841308374558 -s 0 -d 1 -p poisson -e 500 -c 0 -i 10 -a 0 -x {0.0 1.0 10 ------- null}
- -t 0.0266504122313879 -s 0 -d 1 -p poisson -e 500 -c 0 -i 5 -a 0 -x {0.0 1.0 5 ------- null}
h -t 0.0266504122313879 -s 0 -d 1 -p poisson -e 500 -c 0 -i 5 -a 0 -x {0.0 1.0 -1 ------- null}
+ -t 0.0276496750830603 -s 0 -d 1 -p poisson -e 500 -c 0 -i 11 -a 0 -x {0.0 1.0 11 ------- null}
+ -t 0.0278879947295633 -s 0 -d 1 -p poisson -e 500 -c 0 -i 12 -a 0 -x {0.0 1.0 12 ------- null}
r -t 0.0286504122313879 -s 0 -d 1 -p poisson -e 500 -c 0 -i 2 -a 0 -x {0.0 1.0 2 ------- null}
+ -t 0.0302973315540421 -s 0 -d 1 -p poisson -e 500 -c 0 -i 13 -a 0 -x {0.0 1.0 13 ------- null}
- -t 0.0306504122313879 -s 0 -d 1 -p poisson -e 500 -c 0 -i 6 -a 0 -x {0.0 1.0 6 ------- null}
h -t 0.0306504122313879 -s 0 -d 1 -p poisson -e 500 -c 0 -i 6 -a 0 -x {0.0 1.0 -1 ------- null}
r -t 0.0326504122313879 -s 0 -d 1 -p poisson -e 500 -c 0 -i 3 -a 0 -x {0.0 1.0 3 ------- null}
+ -t 0.0344991240077728 -s 0 -d 1 -p poisson -e 500 -c 0 -i 14 -a 0 -x {0.0 1.0 14 ------- null}
- -t 0.0346504122313879 -s 0 -d 1 -p poisson -e 500 -c 0 -i 7 -a 0 -x {0.0 1.0 7 ------- null}
h -t 0.0346504122313879 -s 0 -d 1 -p poisson -e 500 -c 0 -i 7 -a 0 -x {0.0 1.0 -1 ------- null}
+ -t 0.0350940325289009 -s 0 -d 1 -p poisson -e 500 -c 0 -i 15 -a 0 -x {0.0 1.0 15 ------- null}
r -t 0.0366504122313879 -s 0 -d 1 -p poisson -e 500 -c 0 -i 4 -a 0 -x {0.0 1.0 4 ------- null}
+ -t 0.0379916862312691 -s 0 -d 1 -p poisson -e 500 -c 0 -i 16 -a 0 -x {0.0 1.0 16 ------- null}
+ -t 0.0381932056589974 -s 0 -d 1 -p poisson -e 500 -c 0 -i 17 -a 0 -x {0.0 1.0 17 ------- null}
- -t 0.0386504122313879 -s 0 -d 1 -p poisson -e 500 -c 0 -i 8 -a 0 -x {0.0 1.0 8 ------- null}
h -t 0.0386504122313879 -s 0 -d 1 -p poisson -e 500 -c 0 -i 8 -a 0 -x {0.0 1.0 -1 ------- null}
+ -t 0.0393383146401286 -s 0 -d 1 -p poisson -e 500 -c 0 -i 18 -a 0 -x {0.0 1.0 18 ------- null}
r -t 0.0406504122313879 -s 0 -d 1 -p poisson -e 500 -c 0 -i 5 -a 0 -x {0.0 1.0 5 ------- null}
+ -t 0.0416637583201141 -s 0 -d 1 -p poisson -e 500 -c 0 -i 19 -a 0 -x {0.0 1.0 19 ------- null}
- -t 0.0426504122313879 -s 0 -d 1 -p poisson -e 500 -c 0 -i 9 -a 0 -x {0.0 1.0 9 ------- null}
h -t 0.0426504122313879 -s 0 -d 1 -p poisson -e 500 -c 0 -i 9 -a 0 -x {0.0 1.0 -1 ------- null}
r -t 0.0446504122313879 -s 0 -d 1 -p poisson -e 500 -c 0 -i 6 -a 0 -x {0.0 1.0 6 ------- null}
+ -t 0.0448144042008947 -s 0 -d 1 -p poisson -e 500 -c 0 -i 20 -a 0 -x {0.0 1.0 20 ------- null}
+ -t 0.0451002658393922 -s 0 -d 1 -p poisson -e 500 -c 0 -i 21 -a 0 -x {0.0 1.0 21 ------- null}
+ -t 0.046504833411858 -s 0 -d 1 -p poisson -e 500 -c 0 -i 22 -a 0 -x {0.0 1.0 22 ------- null}
- -t 0.0466504122313879 -s 0 -d 1 -p poisson -e 500 -c 0 -i 10 -a 0 -x {0.0 1.0 10 ------- null}
h -t 0.0466504122313879 -s 0 -d 1 -p poisson -e 500 -c 0 -i 10 -a 0 -x {0.0 1.0 -1 ------- null}
+ -t 0.0483107732321809 -s 0 -d 1 -p poisson -e 500 -c 0 -i 23 -a 0 -x {0.0 1.0 23 ------- null}
r -t 0.0486504122313879 -s 0 -d 1 -p poisson -e 500 -c 0 -i 7 -a 0 -x {0.0 1.0 7 ------- null}
+ -t 0.0495038518143141 -s 0 -d 1 -p poisson -e 500 -c 0 -i 24 -a 0 -x {0.0 1.0 24 ------- null}
+ -t 0.0503792229086951 -s 0 -d 1 -p poisson -e 500 -c 0 -i 25 -a 0 -x {0.0 1.0 25 ------- null}
- -t 0.0506504122313879 -s 0 -d 1 -p poisson -e 500 -c 0 -i 11 -a 0 -x {0.0 1.0 11 ------- null}
h -t 0.0506504122313879 -s 0 -d 1 -p poisson -e 500 -c 0 -i 11 -a 0 -x {0.0 1.0 -1 ------- null}
+ -t 0.0513969840890377 -s 0 -d 1 -p poisson -e 500 -c 0 -i 26 -a 0 -x {0.0 1.0 26 ------- null}
+ -t 0.0518872854519711 -s 0 -d 1 -p poisson -e 500 -c 0 -i 27 -a 0 -x {0.0 1.0 27 ------- null}
+ -t 0.0520851813977112 -s 0 -d 1 -p poisson -e 500 -c 0 -i 28 -a 0 -x {0.0 1.0 28 ------- null}
+ -t 0.0523179300652048 -s 0 -d 1 -p poisson -e 500 -c 0 -i 29 -a 0 -x {0.0 1.0 29 ------- null}
r -t 0.0526504122313879 -s 0 -d 1 -p poisson -e 500 -c 0 -i 8 -a 0 -x {0.0 1.0 8 ------- null}
+ -t 0.0543540945443055 -s 0 -d 1 -p poisson -e 500 -c 0 -i 30 -a 0 -x {0.0 1.0 30 ------- null}
- -t 0.0546504122313879 -s 0 -d 1 -p poisson -e 500 -c 0 -i 12 -a 0 -x {0.0 1.0 12 ------- null}
h -t 0.0546504122313879 -s 0 -d 1 -p poisson -e 500 -c 0 -i 12 -a 0 -x {0.0 1.0 -1 ------- null}
+ -t 0.056250124634627 -s 0 -d 1 -p poisson -e 500 -c 0 -i 31 -a 0 -x {0.0 1.0 31 ------- null}
+ -t 0.0564650819017157 -s 0 -d 1 -p poisson -e 500 -c 0 -i 32 -a 0 -x {0.0 1.0 32 ------- null}
r -t 0.0566504122313879 -s 0 -d 1 -p poisson -e 500 -c 0 -i 9 -a 0 -x {0.0 1.0 9 ------- null}
+ -t 0.0569845068526505 -s 0 -d 1 -p poisson -e 500 -c 0 -i 33 -a 0 -x {0.0 1.0 33 ------- null}
+ -t 0.0573465127837597 -s 0 -d 1 -p poisson -e 500 -c 0 -i 34 -a 0 -x {0.0 1.0 34 ------- null}
+ -t 0.0574796869068159 -s 0 -d 1 -p poisson -e 500 -c 0 -i 35 -a 0 -x {0.0 1.0 35 ------- null}
- -t 0.0586504122313879 -s 0 -d 1 -p poisson -e 500 -c 0 -i 13 -a 0 -x {0.0 1.0 13 ------- null}
h -t 0.0586504122313879 -s 0 -d 1 -p poisson -e 500 -c 0 -i 13 -a 0 -x {0.0 1.0 -1 ------- null}
+ -t 0.0586831367208054 -s 0 -d 1 -p poisson -e 500 -c 0 -i 36 -a 0 -x {0.0 1.0 36 ------- null}
r -t 0.0606504122313879 -s 0 -d 1 -p poisson -e 500 -c 0 -i 10 -a 0 -x {0.0 1.0 10 ------- null}
+ -t 0.0616359209995823 -s 0 -d 1 -p poisson -e 500 -c 0 -i 37 -a 0 -x {0.0 1.0 37 ------- null}
- -t 0.062650412231388 -s 0 -d 1 -p poisson -e 500 -c 0 -i 14 -a 0 -x {0.0 1.0 14 ------- null}
h -t 0.062650412231388 -s 0 -d 1 -p poisson -e 500 -c 0 -i 14 -a 0 -x {0.0 1.0 -1 ------- null}
+ -t 0.0628436901321746 -s 0 -d 1 -p poisson -e 500 -c 0 -i 38 -a 0 -x {0.0 1.0 38 ------- null}
r -t 0.0646504122313879 -s 0 -d 1 -p poisson -e 500 -c 0 -i 11 -a 0 -x {0.0 1.0 11 ------- null}
+ -t 0.0650766173352756 -s 0 -d 1 -p poisson -e 500 -c 0 -i 39 -a 0 -x {0.0 1.0 39 ------- null}
+ -t 0.065235831161506 -s 0 -d 1 -p poisson -e 500 -c 0 -i 40 -a 0 -x {0.0 1.0 40 ------- null}
+ -t 0.065309474723704 -s 0 -d 1 -p poisson -e 500 -c 0 -i 41 -a 0 -x {0.0 1.0 41 ------- null}
+ -t 0.0654628354646533 -s 0 -d 1 -p poisson -e 500 -c 0 -i 42 -a 0 -x {0.0 1.0 42 ------- null}
- -t 0.066650412231388 -s 0 -d 1 -p poisson -e 500 -c 0 -i 15 -a 0 -x {0.0 1.0 15 ------- null}
h -t 0.066650412231388 -s 0 -d 1 -p poisson -e 500 -c 0 -i 15 -a 0 -x {0.0 1.0 -1 ------- null}
+ -t 0.0683814712537192 -s 0 -d 1 -p poisson -e 500 -c 0 -i 43 -a 0 -x {0.0 1.0 43 ------- null}
r -t 0.0686504122313879 -s 0 -d 1 -p poisson -e 500 -c 0 -i 12 -a 0 -x {0.0 1.0 12 ------- null}
- -t 0.070650412231388 -s 0 -d 1 -p poisson -e 500 -c 0 -i 16 -a 0 -x {0.0 1.0 16 ------- null}
h -t 0.070650412231388 -s 0 -d 1 -p poisson -e 500 -c 0 -i 16 -a 0 -x {0.0 1.0 -1 ------- null}
+ -t 0.0721686637851633 -s 0 -d 1 -p poisson -e 500 -c 0 -i 44 -a 0 -x {0.0 1.0 44 ------- null}
r -t 0.0726504122313879 -s 0 -d 1 -p poisson -e 500 -c 0 -i 13 -a 0 -x {0.0 1.0 13 ------- null}
- -t 0.074650412231388 -s 0 -d 1 -p poisson -e 500 -c 0 -i 17 -a 0 -x {0.0 1.0 17 ------- null}
h -t 0.074650412231388 -s 0 -d 1 -p poisson -e 500 -c 0 -i 17 -a 0 -x {0.0 1.0 -1 ------- null}
r -t 0.076650412231388 -s 0 -d 1 -p poisson -e 500 -c 0 -i 14 -a 0 -x {0.0 1.0 14 ------- null}
+ -t 0.0782052469636145 -s 0 -d 1 -p poisson -e 500 -c 0 -i 45 -a 0 -x {0.0 1.0 45 ------- null}
- -t 0.078650412231388 -s 0 -d 1 -p poisson -e 500 -c 0 -i 18 -a 0 -x {0.0 1.0 18 ------- null}
h -t 0.078650412231388 -s 0 -d 1 -p poisson -e 500 -c 0 -i 18 -a 0 -x {0.0 1.0 -1 ------- null}
+ -t 0.0788974440897521 -s 0 -d 1 -p poisson -e 500 -c 0 -i 46 -a 0 -x {0.0 1.0 46 ------- null}
+ -t 0.0803529751808096 -s 0 -d 1 -p poisson -e 500 -c 0 -i 47 -a 0 -x {0.0 1.0 47 ------- null}
r -t 0.080650412231388 -s 0 -d 1 -p poisson -e 500 -c 0 -i 15 -a 0 -x {0.0 1.0 15 ------- null}
- -t 0.082650412231388 -s 0 -d 1 -p poisson -e 500 -c 0 -i 19 -a 0 -x {0.0 1.0 19 ------- null}
h -t 0.082650412231388 -s 0 -d 1 -p poisson -e 500 -c 0 -i 19 -a 0 -x {0.0 1.0 -1 ------- null}
+ -t 0.0831459483113633 -s 0 -d 1 -p poisson -e 500 -c 0 -i 48 -a 0 -x {0.0 1.0 48 ------- null}
+ -t 0.0836826597375755 -s 0 -d 1 -p poisson -e 500 -c 0 -i 49 -a 0 -x {0.0 1.0 49 ------- null}
r -t 0.084650412231388 -s 0 -d 1 -p poisson -e 500 -c 0 -i 16 -a 0 -x {0.0 1.0 16 ------- null}
+ -t 0.0854942644778271 -s 0 -d 1 -p poisson -e 500 -c 0 -i 50 -a 0 -x {0.0 1.0 50 ------- null}
+ -t 0.0859723606554365 -s 0 -d 1 -p poisson -e 500 -c 0 -i 51 -a 0 -x {0.0 1.0 51 ------- null}
- -t 0.086650412231388 -s 0 -d 1 -p poisson -e 500 -c 0 -i 20 -a 0 -x {0.0 1.0 20 ------- null}
h -t 0.086650412231388 -s 0 -d 1 -p poisson -e 500 -c 0 -i 20 -a 0 -x {0.0 1.0 -1 ------- null}
+ -t 0.0867820889271392 -s 0 -d 1 -p poisson -e 500 -c 0 -i 52 -a 0 -x {0.0 1.0 52 ------- null}
+ -t 0.086957610236928 -s 0 -d 1 -p poisson -e 500 -c 0 -i 53 -a 0 -x {0.0 1.0 53 ------- null}
r -t 0.088650412231388 -s 0 -d 1 -p poisson -e 500 -c 0 -i 17 -a 0 -x {0.0 1.0 17 ------- null}
+ -t 0.0887443864962957 -s 0 -d 1 -p poisson -e 500 -c 0 -i 54 -a 0 -x {0.0 1.0 54 ------- null}
+ -t 0.0895298212742436 -s 0 -d 1 -p poisson -e 500 -c 0 -i 55 -a 0 -x {0.0 1.0 55 ------- null}
- -t 0.090650412231388 -s 0 -d 1 -p poisson -e 500 -c 0 -i 21 -a 0 -x {0.0 1.0 21 ------- null}
h -t 0.090650412231388 -s 0 -d 1 -p poisson -e 500 -c 0 -i 21 -a 0 -x {0.0 1.0 -1 ------- null}
+ -t 0.0906685549953481 -s 0 -d 1 -p poisson -e 500 -c 0 -i 56 -a 0 -x {0.0 1.0 56 ------- null}
r -t 0.092650412231388 -s 0 -d 1 -p poisson -e 500 -c 0 -i 18 -a 0 -x {0.0 1.0 18 ------- null}
- -t 0.094650412231388 -s 0 -d 1 -p poisson -e 500 -c 0 -i 22 -a 0 -x {0.0 1.0 22 ------- null}
h -t 0.094650412231388 -s 0 -d 1 -p poisson -e 500 -c 0 -i 22 -a 0 -x {0.0 1.0 -1 ------- null}
+ -t 0.0954571970614217 -s 0 -d 1 -p poisson -e 500 -c 0 -i 57 -a 0 -x {0.0 1.0 57 ------- null}
r -t 0.096650412231388 -s 0 -d 1 -p poisson -e 500 -c 0 -i 19 -a 0 -x {0.0 1.0 19 ------- null}
+ -t 0.0969462986095359 -s 0 -d 1 -p poisson -e 500 -c 0 -i 58 -a 0 -x {0.0 1.0 58 ------- null}
- -t 0.098650412231388 -s 0 -d 1 -p poisson -e 500 -c 0 -i 23 -a 0 -x {0.0 1.0 23 ------- null}
h -t 0.098650412231388 -s 0 -d 1 -p poisson -e 500 -c 0 -i 23 -a 0 -x {0.0 1.0 -1 ------- null}
+ -t 0.0991874417665805 -s 0 -d 1 -p poisson -e 500 -c 0 -i 59 -a 0 -x {0.0 1.0 59 ------- null}
+ -t 0.0995102257548398 -s 0 -d 1 -p poisson -e 500 -c 0 -i 60 -a 0 -x {0.0 1.0 60 ------- null}
+ -t 0.0995830928250119 -s 0 -d 1 -p poisson -e 500 -c 0 -i 61 -a 0 -x {0.0 1.0 61 ------- null}
+ -t 0.0999269193862269 -s 0 -d 1 -p poisson -e 500 -c 0 -i 62 -a 0 -x {0.0 1.0 62 ------- null}
r -t 0.100650412231388 -s 0 -d 1 -p poisson -e 500 -c 0 -i 20 -a 0 -x {0.0 1.0 20 ------- null}
+ -t 0.102028682317946 -s 0 -d 1 -p poisson -e 500 -c 0 -i 63 -a 0 -x {0.0 1.0 63 ------- null}
+ -t 0.102513927262617 -s 0 -d 1 -p poisson -e 500 -c 0 -i 64 -a 0 -x {0.0 1.0 64 ------- null}
- -t 0.102650412231388 -s 0 -d 1 -p poisson -e 500 -c 0 -i 24 -a 0 -x {0.0 1.0 24 ------- null}
h -t 0.102650412231388 -s 0 -d 1 -p poisson -e 500 -c 0 -i 24 -a 0 -x {0.0 1.0 -1 ------- null}
r -t 0.104650412231388 -s 0 -d 1 -p poisson -e 500 -c 0 -i 21 -a 0 -x {0.0 1.0 21 ------- null}
+ -t 0.104809781958308 -s 0 -d 1 -p poisson -e 500 -c 0 -i 65 -a 0 -x {0.0 1.0 65 ------- null}
+ -t 0.104842163062146 -s 0 -d 1 -p poisson -e 500 -c 0 -i 66 -a 0 -x {0.0 1.0 66 ------- null}
- -t 0.106650412231388 -s 0 -d 1 -p poisson -e 500 -c 0 -i 25 -a 0 -x {0.0 1.0 25 ------- null}
h -t 0.106650412231388 -s 0 -d 1 -p poisson -e 500 -c 0 -i 25 -a 0 -x {0.0 1.0 -1 ------- null}
+ -t 0.108032804780665 -s 0 -d 1 -p poisson -e 500 -c 0 -i 67 -a 0 -x {0.0 1.0 67 ------- null}
r -t 0.108650412231388 -s 0 -d 1 -p poisson -e 500 -c 0 -i 22 -a 0 -x {0.0 1.0 22 ------- null}
+ -t 0.108979261268416 -s 0 -d 1 -p poisson -e 500 -c 0 -i 68 -a 0 -x {0.0 1.0 68 ------- null}
- -t 0.110650412231388 -s 0 -d 1 -p poisson -e 500 -c 0 -i 26 -a 0 -x {0.0 1.0 26 ------- null}
h -t 0.110650412231388 -s 0 -d 1 -p poisson -e 500 -c 0 -i 26 -a 0 -x {0.0 1.0 -1 ------- null}
r -t 0.112650412231388 -s 0 -d 1 -p poisson -e 500 -c 0 -i 23 -a 0 -x {0.0 1.0 23 ------- null}
+ -t 0.112970018240234 -s 0 -d 1 -p poisson -e 500 -c 0 -i 69 -a 0 -x {0.0 1.0 69 ------- null}
+ -t 0.113163223354913 -s 0 -d 1 -p poisson -e 500 -c 0 -i 70 -a 0 -x {0.0 1.0 70 ------- null}
+ -t 0.114002455630816 -s 0 -d 1 -p poisson -e 500 -c 0 -i 71 -a 0 -x {0.0 1.0 71 ------- null}
+ -t 0.114412803372755 -s 0 -d 1 -p poisson -e 500 -c 0 -i 72 -a 0 -x {0.0 1.0 72 ------- null}
- -t 0.114650412231388 -s 0 -d 1 -p poisson -e 500 -c 0 -i 27 -a 0 -x {0.0 1.0 27 ------- null}
h -t 0.114650412231388 -s 0 -d 1 -p poisson -e 500 -c 0 -i 27 -a 0 -x {0.0 1.0 -1 ------- null}
+ -t 0.115565603233905 -s 0 -d 1 -p poisson -e 500 -c 0 -i 73 -a 0 -x {0.0 1.0 73 ------- null}
r -t 0.116650412231388 -s 0 -d 1 -p poisson -e 500 -c 0 -i 24 -a 0 -x {0.0 1.0 24 ------- null}
- -t 0.118650412231388 -s 0 -d 1 -p poisson -e 500 -c 0 -i 28 -a 0 -x {0.0 1.0 28 ------- null}
h -t 0.118650412231388 -s 0 -d 1 -p poisson -e 500 -c 0 -i 28 -a 0 -x {0.0 1.0 -1 ------- null}
+ -t 0.118803132119079 -s 0 -d 1 -p poisson -e 500 -c 0 -i 74 -a 0 -x {0.0 1.0 74 ------- null}
+ -t 0.119076870043728 -s 0 -d 1 -p poisson -e 500 -c 0 -i 75 -a 0 -x {0.0 1.0 75 ------- null}
+ -t 0.119213138661045 -s 0 -d 1 -p poisson -e 500 -c 0 -i 76 -a 0 -x {0.0 1.0 76 ------- null}
+ -t 0.119636334466069 -s 0 -d 1 -p poisson -e 500 -c 0 -i 77 -a 0 -x {0.0 1.0 77 ------- null}
+ -t 0.11981491539731 -s 0 -d 1 -p poisson -e 500 -c 0 -i 78 -a 0 -x {0.0 1.0 78 ------- null}
d -t 0.11981491539731 -s 0 -d 1 -p poisson -e 500 -c 0 -i 78 -a 0 -x {0.0 1.0 78 ------- null}
+ -t 0.120527240146936 -s 0 -d 1 -p poisson -e 500 -c 0 -i 79 -a 0 -x {0.0 1.0 79 ------- null}
d -t 0.120527240146936 -s 0 -d 1 -p poisson -e 500 -c 0 -i 79 -a 0 -x {0.0 1.0 79 ------- null}
r -t 0.120650412231388 -s 0 -d 1 -p poisson -e 500 -c 0 -i 25 -a 0 -x {0.0 1.0 25 ------- null}
+ -t 0.120936229288257 -s 0 -d 1 -p poisson -e 500 -c 0 -i 80 -a 0 -x {0.0 1.0 80 ------- null}
d -t 0.120936229288257 -s 0 -d 1 -p poisson -e 500 -c 0 -i 80 -a 0 -x {0.0 1.0 80 ------- null}
+ -t 0.121230405127828 -s 0 -d 1 -p poisson -e 500 -c 0 -i 81 -a 0 -x {0.0 1.0 81 ------- null}
d -t 0.121230405127828 -s 0 -d 1 -p poisson -e 500 -c 0 -i 81 -a 0 -x {0.0 1.0 81 ------- null}
+ -t 0.122607285141327 -s 0 -d 1 -p poisson -e 500 -c 0 -i 82 -a 0 -x {0.0 1.0 82 ------- null}
d -t 0.122607285141327 -s 0 -d 1 -p poisson -e 500 -c 0 -i 82 -a 0 -x {0.0 1.0 82 ------- null}
- -t 0.122650412231388 -s 0 -d 1 -p poisson -e 500 -c 0 -i 29 -a 0 -x {0.0 1.0 29 ------- null}
h -t 0.122650412231388 -s 0 -d 1 -p poisson -e 500 -c 0 -i 29 -a 0 -x {0.0 1.0 -1 ------- null}
+ -t 0.123384170940943 -s 0 -d 1 -p poisson -e 500 -c 0 -i 83 -a 0 -x {0.0 1.0 83 ------- null}
+ -t 0.123655974797082 -s 0 -d 1 -p poisson -e 500 -c 0 -i 84 -a 0 -x {0.0 1.0 84 ------- null}
d -t 0.123655974797082 -s 0 -d 1 -p poisson -e 500 -c 0 -i 84 -a 0 -x {0.0 1.0 84 ------- null}
+ -t 0.12398081910299 -s 0 -d 1 -p poisson -e 500 -c 0 -i 85 -a 0 -x {0.0 1.0 85 ------- null}
d -t 0.12398081910299 -s 0 -d 1 -p poisson -e 500 -c 0 -i 85 -a 0 -x {0.0 1.0 85 ------- null}
+ -t 0.124527735598246 -s 0 -d 1 -p poisson -e 500 -c 0 -i 86 -a 0 -x {0.0 1.0 86 ------- null}
d -t 0.124527735598246 -s 0 -d 1 -p poisson -e 500 -c 0 -i 86 -a 0 -x {0.0 1.0 86 ------- null}
r -t 0.124650412231388 -s 0 -d 1 -p poisson -e 500 -c 0 -i 26 -a 0 -x {0.0 1.0 26 ------- null}
- -t 0.126650412231388 -s 0 -d 1 -p poisson -e 500 -c 0 -i 30 -a 0 -x {0.0 1.0 30 ------- null}
h -t 0.126650412231388 -s 0 -d 1 -p poisson -e 500 -c 0 -i 30 -a 0 -x {0.0 1.0 -1 ------- null}
+ -t 0.127057331750381 -s 0 -d 1 -p poisson -e 500 -c 0 -i 87 -a 0 -x {0.0 1.0 87 ------- null}
+ -t 0.128257962021877 -s 0 -d 1 -p poisson -e 500 -c 0 -i 88 -a 0 -x {0.0 1.0 88 ------- null}
d -t 0.128257962021877 -s 0 -d 1 -p poisson -e 500 -c 0 -i 88 -a 0 -x {0.0 1.0 88 ------- null}
r -t 0.128650412231388 -s 0 -d 1 -p poisson -e 500 -c 0 -i 27 -a 0 -x {0.0 1.0 27 ------- null}
+ -t 0.129064510050518 -s 0 -d 1 -p poisson -e 500 -c 0 -i 89 -a 0 -x {0.0 1.0 89 ------- null}
d -t 0.129064510050518 -s 0 -d 1 -p poisson -e 500 -c 0 -i 89 -a 0 -x {0.0 1.0 89 ------- null}
+ -t 0.130377255753619 -s 0 -d 1 -p poisson -e 500 -c 0 -i 90 -a 0 -x {0.0 1.0 90 ------- null}
d -t 0.130377255753619 -s 0 -d 1 -p poisson -e 500 -c 0 -i 90 -a 0 -x {0.0 1.0 90 ------- null}
- -t 0.130650412231388 -s 0 -d 1 -p poisson -e 500 -c 0 -i 31 -a 0 -x {0.0 1.0 31 ------- null}
h -t 0.130650412231388 -s 0 -d 1 -p poisson -e 500 -c 0 -i 31 -a 0 -x {0.0 1.0 -1 ------- null}
r -t 0.132650412231388 -s 0 -d 1 -p poisson -e 500 -c 0 -i 28 -a 0 -x {0.0 1.0 28 ------- null}
- -t 0.134650412231388 -s 0 -d 1 -p poisson -e 500 -c 0 -i 32 -a 0 -x {0.0 1.0 32 ------- null}
h -t 0.134650412231388 -s 0 -d 1 -p poisson -e 500 -c 0 -i 32 -a 0 -x {0.0 1.0 -1 ------- null}
r -t 0.136650412231388 -s 0 -d 1 -p poisson -e 500 -c 0 -i 29 -a 0 -x {0.0 1.0 29 ------- null}
- -t 0.138650412231388 -s 0 -d 1 -p poisson -e 500 -c 0 -i 33 -a 0 -x {0.0 1.0 33 ------- null}
h -t 0.138650412231388 -s 0 -d 1 -p poisson -e 500 -c 0 -i 33 -a 0 -x {0.0 1.0 -1 ------- null}
r -t 0.140650412231388 -s 0 -d 1 -p poisson -e 500 -c 0 -i 30 -a 0 -x {0.0 1.0 30 ------- null}
+ -t 0.14191507267787 -s 0 -d 1 -p poisson -e 500 -c 0 -i 91 -a 0 -x {0.0 1.0 91 ------- null}
- -t 0.142650412231388 -s 0 -d 1 -p poisson -e 500 -c 0 -i 34 -a 0 -x {0.0 1.0 34 ------- null}
h -t 0.142650412231388 -s 0 -d 1 -p poisson -e 500 -c 0 -i 34 -a 0 -x {0.0 1.0 -1 ------- null}
r -t 0.144650412231388 -s 0 -d 1 -p poisson -e 500 -c 0 -i 31 -a 0 -x {0.0 1.0 31 ------- null}
+ -t 0.145226737523385 -s 0 -d 1 -p poisson -e 500 -c 0 -i 92 -a 0 -x {0.0 1.0 92 ------- null}
- -t 0.146650412231388 -s 0 -d 1 -p poisson -e 500 -c 0 -i 35 -a 0 -x {0.0 1.0 35 ------- null}
h -t 0.146650412231388 -s 0 -d 1 -p poisson -e 500 -c 0 -i 35 -a 0 -x {0.0 1.0 -1 ------- null}
+ -t 0.146696037060417 -s 0 -d 1 -p poisson -e 500 -c 0 -i 93 -a 0 -x {0.0 1.0 93 ------- null}
+ -t 0.14717983892678 -s 0 -d 1 -p poisson -e 500 -c 0 -i 94 -a 0 -x {0.0 1.0 94 ------- null}
+ -t 0.147302748201547 -s 0 -d 1 -p poisson -e 500 -c 0 -i 95 -a 0 -x {0.0 1.0 95 ------- null}
r -t 0.148650412231388 -s 0 -d 1 -p poisson -e 500 -c 0 -i 32 -a 0 -x {0.0 1.0 32 ------- null}
- -t 0.150650412231388 -s 0 -d 1 -p poisson -e 500 -c 0 -i 36 -a 0 -x {0.0 1.0 36 ------- null}
h -t 0.150650412231388 -s 0 -d 1 -p poisson -e 500 -c 0 -i 36 -a 0 -x {0.0 1.0 -1 ------- null}
+ -t 0.151859494680367 -s 0 -d 1 -p poisson -e 500 -c 0 -i 96 -a 0 -x {0.0 1.0 96 ------- null}
r -t 0.152650412231388 -s 0 -d 1 -p poisson -e 500 -c 0 -i 33 -a 0 -x {0.0 1.0 33 ------- null}
+ -t 0.153202402083932 -s 0 -d 1 -p poisson -e 500 -c 0 -i 97 -a 0 -x {0.0 1.0 97 ------- null}
d -t 0.153202402083932 -s 0 -d 1 -p poisson -e 500 -c 0 -i 97 -a 0 -x {0.0 1.0 97 ------- null}
- -t 0.154650412231388 -s 0 -d 1 -p poisson -e 500 -c 0 -i 37 -a 0 -x {0.0 1.0 37 ------- null}
h -t 0.154650412231388 -s 0 -d 1 -p poisson -e 500 -c 0 -i 37 -a 0 -x {0.0 1.0 -1 ------- null}
+ -t 0.154785708293677 -s 0 -d 1 -p poisson -e 500 -c 0 -i 98 -a 0 -x {0.0 1.0 98 ------- null}
r -t 0.156650412231388 -s 0 -d 1 -p poisson -e 500 -c 0 -i 34 -a 0 -x {0.0 1.0 34 ------- null}
- -t 0.158650412231388 -s 0 -d 1 -p poisson -e 500 -c 0 -i 38 -a 0 -x {0.0 1.0 38 ------- null}
h -t 0.158650412231388 -s 0 -d 1 -p poisson -e 500 -c 0 -i 38 -a 0 -x {0.0 1.0 -1 ------- null}
r -t 0.160650412231388 -s 0 -d 1 -p poisson -e 500 -c 0 -i 35 -a 0 -x {0.0 1.0 35 ------- null}
+ -t 0.162383994671242 -s 0 -d 1 -p poisson -e 500 -c 0 -i 99 -a 0 -x {0.0 1.0 99 ------- null}
- -t 0.162650412231388 -s 0 -d 1 -p poisson -e 500 -c 0 -i 39 -a 0 -x {0.0 1.0 39 ------- null}
h -t 0.162650412231388 -s 0 -d 1 -p poisson -e 500 -c 0 -i 39 -a 0 -x {0.0 1.0 -1 ------- null}
+ -t 0.163896031515699 -s 0 -d 1 -p poisson -e 500 -c 0 -i 100 -a 0 -x {0.0 1.0 100 ------- null}
+ -t 0.164064572101345 -s 0 -d 1 -p poisson -e 500 -c 0 -i 101 -a 0 -x {0.0 1.0 101 ------- null}
d -t 0.164064572101345 -s 0 -d 1 -p poisson -e 500 -c 0 -i 101 -a 0 -x {0.0 1.0 101 ------- null}
+ -t 0.164235023214193 -s 0 -d 1 -p poisson -e 500 -c 0 -i 102 -a 0 -x {0.0 1.0 102 ------- null}
d -t 0.164235023214193 -s 0 -d 1 -p poisson -e 500 -c 0 -i 102 -a 0 -x {0.0 1.0 102 ------- null}
+ -t 0.164522863478044 -s 0 -d 1 -p poisson -e 500 -c 0 -i 103 -a 0 -x {0.0 1.0 103 ------- null}
d -t 0.164522863478044 -s 0 -d 1 -p poisson -e 500 -c 0 -i 103 -a 0 -x {0.0 1.0 103 ------- null}
r -t 0.164650412231388 -s 0 -d 1 -p poisson -e 500 -c 0 -i 36 -a 0 -x {0.0 1.0 36 ------- null}
- -t 0.166650412231388 -s 0 -d 1 -p poisson -e 500 -c 0 -i 40 -a 0 -x {0.0 1.0 40 ------- null}
h -t 0.166650412231388 -s 0 -d 1 -p poisson -e 500 -c 0 -i 40 -a 0 -x {0.0 1.0 -1 ------- null}
+ -t 0.166875945835158 -s 0 -d 1 -p poisson -e 500 -c 0 -i 104 -a 0 -x {0.0 1.0 104 ------- null}
r -t 0.168650412231388 -s 0 -d 1 -p poisson -e 500 -c 0 -i 37 -a 0 -x {0.0 1.0 37 ------- null}
- -t 0.170650412231388 -s 0 -d 1 -p poisson -e 500 -c 0 -i 41 -a 0 -x {0.0 1.0 41 ------- null}
h -t 0.170650412231388 -s 0 -d 1 -p poisson -e 500 -c 0 -i 41 -a 0 -x {0.0 1.0 -1 ------- null}
+ -t 0.171467747729962 -s 0 -d 1 -p poisson -e 500 -c 0 -i 105 -a 0 -x {0.0 1.0 105 ------- null}
+ -t 0.171842048665941 -s 0 -d 1 -p poisson -e 500 -c 0 -i 106 -a 0 -x {0.0 1.0 106 ------- null}
d -t 0.171842048665941 -s 0 -d 1 -p poisson -e 500 -c 0 -i 106 -a 0 -x {0.0 1.0 106 ------- null}
+ -t 0.17248945306993 -s 0 -d 1 -p poisson -e 500 -c 0 -i 107 -a 0 -x {0.0 1.0 107 ------- null}
d -t 0.17248945306993 -s 0 -d 1 -p poisson -e 500 -c 0 -i 107 -a 0 -x {0.0 1.0 107 ------- null}
r -t 0.172650412231388 -s 0 -d 1 -p poisson -e 500 -c 0 -i 38 -a 0 -x {0.0 1.0 38 ------- null}
+ -t 0.172804376885003 -s 0 -d 1 -p poisson -e 500 -c 0 -i 108 -a 0 -x {0.0 1.0 108 ------- null}
d -t 0.172804376885003 -s 0 -d 1 -p poisson -e 500 -c 0 -i 108 -a 0 -x {0.0 1.0 108 ------- null}
+ -t 0.173674365140283 -s 0 -d 1 -p poisson -e 500 -c 0 -i 109 -a 0 -x {0.0 1.0 109 ------- null}
d -t 0.173674365140283 -s 0 -d 1 -p poisson -e 500 -c 0 -i 109 -a 0 -x {0.0 1.0 109 ------- null}
- -t 0.174650412231388 -s 0 -d 1 -p poisson -e 500 -c 0 -i 42 -a 0 -x {0.0 1.0 42 ------- null}
h -t 0.174650412231388 -s 0 -d 1 -p poisson -e 500 -c 0 -i 42 -a 0 -x {0.0 1.0 -1 ------- null}
+ -t 0.174735309660195 -s 0 -d 1 -p poisson -e 500 -c 0 -i 110 -a 0 -x {0.0 1.0 110 ------- null}
r -t 0.176650412231388 -s 0 -d 1 -p poisson -e 500 -c 0 -i 39 -a 0 -x {0.0 1.0 39 ------- null}
+ -t 0.176831402008703 -s 0 -d 1 -p poisson -e 500 -c 0 -i 111 -a 0 -x {0.0 1.0 111 ------- null}
d -t 0.176831402008703 -s 0 -d 1 -p poisson -e 500 -c 0 -i 111 -a 0 -x {0.0 1.0 111 ------- null}
- -t 0.178650412231388 -s 0 -d 1 -p poisson -e 500 -c 0 -i 43 -a 0 -x {0.0 1.0 43 ------- null}
h -t 0.178650412231388 -s 0 -d 1 -p poisson -e 500 -c 0 -i 43 -a 0 -x {0.0 1.0 -1 ------- null}
r -t 0.180650412231388 -s 0 -d 1 -p poisson -e 500 -c 0 -i 40 -a 0 -x {0.0 1.0 40 ------- null}
+ -t 0.182345192682936 -s 0 -d 1 -p poisson -e 500 -c 0 -i 112 -a 0 -x {0.0 1.0 112 ------- null}
- -t 0.182650412231388 -s 0 -d 1 -p poisson -e 500 -c 0 -i 44 -a 0 -x {0.0 1.0 44 ------- null}
h -t 0.182650412231388 -s 0 -d 1 -p poisson -e 500 -c 0 -i 44 -a 0 -x {0.0 1.0 -1 ------- null}
+ -t 0.183440092811766 -s 0 -d 1 -p poisson -e 500 -c 0 -i 113 -a 0 -x {0.0 1.0 113 ------- null}
+ -t 0.184543177881478 -s 0 -d 1 -p poisson -e 500 -c 0 -i 114 -a 0 -x {0.0 1.0 114 ------- null}
d -t 0.184543177881478 -s 0 -d 1 -p poisson -e 500 -c 0 -i 114 -a 0 -x {0.0 1.0 114 ------- null}
r -t 0.184650412231388 -s 0 -d 1 -p poisson -e 500 -c 0 -i 41 -a 0 -x {0.0 1.0 41 ------- null}
+ -t 0.186016506644043 -s 0 -d 1 -p poisson -e 500 -c 0 -i 115 -a 0 -x {0.0 1.0 115 ------- null}
d -t 0.186016506644043 -s 0 -d 1 -p poisson -e 500 -c 0 -i 115 -a 0 -x {0.0 1.0 115 ------- null}
- -t 0.186650412231388 -s 0 -d 1 -p poisson -e 500 -c 0 -i 45 -a 0 -x {0.0 1.0 45 ------- null}
h -t 0.186650412231388 -s 0 -d 1 -p poisson -e 500 -c 0 -i 45 -a 0 -x {0.0 1.0 -1 ------- null}
r -t 0.188650412231388 -s 0 -d 1 -p poisson -e 500 -c 0 -i 42 -a 0 -x {0.0 1.0 42 ------- null}
+ -t 0.188852699291056 -s 0 -d 1 -p poisson -e 500 -c 0 -i 116 -a 0 -x {0.0 1.0 116 ------- null}
+ -t 0.188994047469111 -s 0 -d 1 -p poisson -e 500 -c 0 -i 117 -a 0 -x {0.0 1.0 117 ------- null}
d -t 0.188994047469111 -s 0 -d 1 -p poisson -e 500 -c 0 -i 117 -a 0 -x {0.0 1.0 117 ------- null}
- -t 0.190650412231388 -s 0 -d 1 -p poisson -e 500 -c 0 -i 46 -a 0 -x {0.0 1.0 46 ------- null}
h -t 0.190650412231388 -s 0 -d 1 -p poisson -e 500 -c 0 -i 46 -a 0 -x {0.0 1.0 -1 ------- null}
+ -t 0.191048806272964 -s 0 -d 1 -p poisson -e 500 -c 0 -i 118 -a 0 -x {0.0 1.0 118 ------- null}
+ -t 0.192172844960002 -s 0 -d 1 -p poisson -e 500 -c 0 -i 119 -a 0 -x {0.0 1.0 119 ------- null}
d -t 0.192172844960002 -s 0 -d 1 -p poisson -e 500 -c 0 -i 119 -a 0 -x {0.0 1.0 119 ------- null}
r -t 0.192650412231388 -s 0 -d 1 -p poisson -e 500 -c 0 -i 43 -a 0 -x {0.0 1.0 43 ------- null}
+ -t 0.193320235561074 -s 0 -d 1 -p poisson -e 500 -c 0 -i 120 -a 0 -x {0.0 1.0 120 ------- null}
d -t 0.193320235561074 -s 0 -d 1 -p poisson -e 500 -c 0 -i 120 -a 0 -x {0.0 1.0 120 ------- null}
+ -t 0.194517256458958 -s 0 -d 1 -p poisson -e 500 -c 0 -i 121 -a 0 -x {0.0 1.0 121 ------- null}
d -t 0.194517256458958 -s 0 -d 1 -p poisson -e 500 -c 0 -i 121 -a 0 -x {0.0 1.0 121 ------- null}
- -t 0.194650412231388 -s 0 -d 1 -p poisson -e 500 -c 0 -i 47 -a 0 -x {0.0 1.0 47 ------- null}
h -t 0.194650412231388 -s 0 -d 1 -p poisson -e 500 -c 0 -i 47 -a 0 -x {0.0 1.0 -1 ------- null}
+ -t 0.194926584492536 -s 0 -d 1 -p poisson -e 500 -c 0 -i 122 -a 0 -x {0.0 1.0 122 ------- null}
+ -t 0.195892014200654 -s 0 -d 1 -p poisson -e 500 -c 0 -i 123 -a 0 -x {0.0 1.0 123 ------- null}
d -t 0.195892014200654 -s 0 -d 1 -p poisson -e 500 -c 0 -i 123 -a 0 -x {0.0 1.0 123 ------- null}
+ -t 0.196037242791476 -s 0 -d 1 -p poisson -e 500 -c 0 -i 124 -a 0 -x {0.0 1.0 124 ------- null}
d -t 0.196037242791476 -s 0 -d 1 -p poisson -e 500 -c 0 -i 124 -a 0 -x {0.0 1.0 124 ------- null}
r -t 0.196650412231388 -s 0 -d 1 -p poisson -e 500 -c 0 -i 44 -a 0 -x {0.0 1.0 44 ------- null}
+ -t 0.196668423495281 -s 0 -d 1 -p poisson -e 500 -c 0 -i 125 -a 0 -x {0.0 1.0 125 ------- null}
d -t 0.196668423495281 -s 0 -d 1 -p poisson -e 500 -c 0 -i 125 -a 0 -x {0.0 1.0 125 ------- null}
+ -t 0.196883888045892 -s 0 -d 1 -p poisson -e 500 -c 0 -i 126 -a 0 -x {0.0 1.0 126 ------- null}
d -t 0.196883888045892 -s 0 -d 1 -p poisson -e 500 -c 0 -i 126 -a 0 -x {0.0 1.0 126 ------- null}
- -t 0.198650412231388 -s 0 -d 1 -p poisson -e 500 -c 0 -i 48 -a 0 -x {0.0 1.0 48 ------- null}
h -t 0.198650412231388 -s 0 -d 1 -p poisson -e 500 -c 0 -i 48 -a 0 -x {0.0 1.0 -1 ------- null}
+ -t 0.199339773572074 -s 0 -d 1 -p poisson -e 500 -c 0 -i 127 -a 0 -x {0.0 1.0 127 ------- null}
r -t 0.200650412231388 -s 0 -d 1 -p poisson -e 500 -c 0 -i 45 -a 0 -x {0.0 1.0 45 ------- null}
+ -t 0.201267602470342 -s 0 -d 1 -p poisson -e 500 -c 0 -i 128 -a 0 -x {0.0 1.0 128 ------- null}
d -t 0.201267602470342 -s 0 -d 1 -p poisson -e 500 -c 0 -i 128 -a 0 -x {0.0 1.0 128 ------- null}
- -t 0.202650412231388 -s 0 -d 1 -p poisson -e 500 -c 0 -i 49 -a 0 -x {0.0 1.0 49 ------- null}
h -t 0.202650412231388 -s 0 -d 1 -p poisson -e 500 -c 0 -i 49 -a 0 -x {0.0 1.0 -1 ------- null}
r -t 0.204650412231388 -s 0 -d 1 -p poisson -e 500 -c 0 -i 46 -a 0 -x {0.0 1.0 46 ------- null}
+ -t 0.204922616064338 -s 0 -d 1 -p poisson -e 500 -c 0 -i 129 -a 0 -x {0.0 1.0 129 ------- null}