+ 0 0 1 poisson 500 ------- 0 0.0 1.0 0 0
- 0 0 1 poisson 500 ------- 0 0.0 1.0 0 0
r 0.014 0 1 poisson 500 ------- 0 0.0 1.0 0 0
+ 0.021301 0 1 poisson 500 ------- 0 0.0 1.0 1 1
- 0.021301 0 1 poisson 500 ------- 0 0.0 1.0 1 1
+ 0.022867 0 1 poisson 500 ------- 0 0.0 1.0 2 2
- 0.025301 0 1 poisson 500 ------- 0 0.0 1.0 2 2
+ 0.034211 0 1 poisson 500 ------- 0 0.0 1.0 3 3
- 0.034211 0 1 poisson 500 ------- 0 0.0 1.0 3 3
r 0.035301 0 1 poisson 500 ------- 0 0.0 1.0 1 1
r 0.039301 0 1 poisson 500 ------- 0 0.0 1.0 2 2
+ 0.040689 0 1 poisson 500 ------- 0 0.0 1.0 4 4
- 0.040689 0 1 poisson 500 ------- 0 0.0 1.0 4 4
+ 0.042871 0 1 poisson 500 ------- 0 0.0 1.0 5 5
+ 0.043469 0 1 poisson 500 ------- 0 0.0 1.0 6 6
- 0.044689 0 1 poisson 500 ------- 0 0.0 1.0 5 5
+ 0.046566 0 1 poisson 500 ------- 0 0.0 1.0 7 7
+ 0.047107 0 1 poisson 500 ------- 0 0.0 1.0 8 8
r 0.048211 0 1 poisson 500 ------- 0 0.0 1.0 3 3
- 0.048689 0 1 poisson 500 ------- 0 0.0 1.0 6 6
+ 0.050973 0 1 poisson 500 ------- 0 0.0 1.0 9 9
+ 0.052168 0 1 poisson 500 ------- 0 0.0 1.0 10 10
- 0.052689 0 1 poisson 500 ------- 0 0.0 1.0 7 7
r 0.054689 0 1 poisson 500 ------- 0 0.0 1.0 4 4
+ 0.055299 0 1 poisson 500 ------- 0 0.0 1.0 11 11
+ 0.055776 0 1 poisson 500 ------- 0 0.0 1.0 12 12
- 0.056689 0 1 poisson 500 ------- 0 0.0 1.0 8 8
r 0.058689 0 1 poisson 500 ------- 0 0.0 1.0 5 5
+ 0.060595 0 1 poisson 500 ------- 0 0.0 1.0 13 13
- 0.060689 0 1 poisson 500 ------- 0 0.0 1.0 9 9
r 0.062689 0 1 poisson 500 ------- 0 0.0 1.0 6 6
- 0.064689 0 1 poisson 500 ------- 0 0.0 1.0 10 10
r 0.066689 0 1 poisson 500 ------- 0 0.0 1.0 7 7
- 0.068689 0 1 poisson 500 ------- 0 0.0 1.0 11 11
+ 0.068998 0 1 poisson 500 ------- 0 0.0 1.0 14 14
+ 0.070188 0 1 poisson 500 ------- 0 0.0 1.0 15 15
r 0.070689 0 1 poisson 500 ------- 0 0.0 1.0 8 8
- 0.072689 0 1 poisson 500 ------- 0 0.0 1.0 12 12
r 0.074689 0 1 poisson 500 ------- 0 0.0 1.0 9 9
+ 0.075983 0 1 poisson 500 ------- 0 0.0 1.0 16 16
+ 0.076386 0 1 poisson 500 ------- 0 0.0 1.0 17 17
- 0.076689 0 1 poisson 500 ------- 0 0.0 1.0 13 13
+ 0.078677 0 1 poisson 500 ------- 0 0.0 1.0 18 18
r 0.078689 0 1 poisson 500 ------- 0 0.0 1.0 10 10
- 0.080689 0 1 poisson 500 ------- 0 0.0 1.0 14 14
r 0.082689 0 1 poisson 500 ------- 0 0.0 1.0 11 11
+ 0.083328 0 1 poisson 500 ------- 0 0.0 1.0 19 19
- 0.084689 0 1 poisson 500 ------- 0 0.0 1.0 15 15
r 0.086689 0 1 poisson 500 ------- 0 0.0 1.0 12 12
- 0.088689 0 1 poisson 500 ------- 0 0.0 1.0 16 16
+ 0.089629 0 1 poisson 500 ------- 0 0.0 1.0 20 20
+ 0.090201 0 1 poisson 500 ------- 0 0.0 1.0 21 21
r 0.090689 0 1 poisson 500 ------- 0 0.0 1.0 13 13
- 0.092689 0 1 poisson 500 ------- 0 0.0 1.0 17 17
+ 0.09301 0 1 poisson 500 ------- 0 0.0 1.0 22 22
r 0.094689 0 1 poisson 500 ------- 0 0.0 1.0 14 14
+ 0.096622 0 1 poisson 500 ------- 0 0.0 1.0 23 23
- 0.096689 0 1 poisson 500 ------- 0 0.0 1.0 18 18
r 0.098689 0 1 poisson 500 ------- 0 0.0 1.0 15 15
+ 0.099008 0 1 poisson 500 ------- 0 0.0 1.0 24 24
- 0.100689 0 1 poisson 500 ------- 0 0.0 1.0 19 19
+ 0.100758 0 1 poisson 500 ------- 0 0.0 1.0 25 25
r 0.102689 0 1 poisson 500 ------- 0 0.0 1.0 16 16
+ 0.102794 0 1 poisson 500 ------- 0 0.0 1.0 26 26
+ 0.103775 0 1 poisson 500 ------- 0 0.0 1.0 27 27
+ 0.10417 0 1 poisson 500 ------- 0 0.0 1.0 28 28
+ 0.104636 0 1 poisson 500 ------- 0 0.0 1.0 29 29
- 0.104689 0 1 poisson 500 ------- 0 0.0 1.0 20 20
r 0.106689 0 1 poisson 500 ------- 0 0.0 1.0 17 17
- 0.108689 0 1 poisson 500 ------- 0 0.0 1.0 21 21
+ 0.108708 0 1 poisson 500 ------- 0 0.0 1.0 30 30
r 0.110689 0 1 poisson 500 ------- 0 0.0 1.0 18 18
+ 0.1125 0 1 poisson 500 ------- 0 0.0 1.0 31 31
- 0.112689 0 1 poisson 500 ------- 0 0.0 1.0 22 22
+ 0.11293 0 1 poisson 500 ------- 0 0.0 1.0 32 32
+ 0.113969 0 1 poisson 500 ------- 0 0.0 1.0 33 33
r 0.114689 0 1 poisson 500 ------- 0 0.0 1.0 19 19
+ 0.114693 0 1 poisson 500 ------- 0 0.0 1.0 34 34
+ 0.114959 0 1 poisson 500 ------- 0 0.0 1.0 35 35
- 0.116689 0 1 poisson 500 ------- 0 0.0 1.0 23 23
+ 0.117366 0 1 poisson 500 ------- 0 0.0 1.0 36 36
r 0.118689 0 1 poisson 500 ------- 0 0.0 1.0 20 20
- 0.120689 0 1 poisson 500 ------- 0 0.0 1.0 24 24
r 0.122689 0 1 poisson 500 ------- 0 0.0 1.0 21 21
+ 0.123272 0 1 poisson 500 ------- 0 0.0 1.0 37 37
- 0.124689 0 1 poisson 500 ------- 0 0.0 1.0 25 25
+ 0.125687 0 1 poisson 500 ------- 0 0.0 1.0 38 38
r 0.126689 0 1 poisson 500 ------- 0 0.0 1.0 22 22
- 0.128689 0 1 poisson 500 ------- 0 0.0 1.0 26 26
+ 0.130153 0 1 poisson 500 ------- 0 0.0 1.0 39 39
+ 0.130472 0 1 poisson 500 ------- 0 0.0 1.0 40 40
+ 0.130619 0 1 poisson 500 ------- 0 0.0 1.0 41 41
r 0.130689 0 1 poisson 500 ------- 0 0.0 1.0 23 23
+ 0.130926 0 1 poisson 500 ------- 0 0.0 1.0 42 42
- 0.132689 0 1 poisson 500 ------- 0 0.0 1.0 27 27
r 0.134689 0 1 poisson 500 ------- 0 0.0 1.0 24 24
- 0.136689 0 1 poisson 500 ------- 0 0.0 1.0 28 28
+ 0.136763 0 1 poisson 500 ------- 0 0.0 1.0 43 43
r 0.138689 0 1 poisson 500 ------- 0 0.0 1.0 25 25
- 0.140689 0 1 poisson 500 ------- 0 0.0 1.0 29 29
r 0.142689 0 1 poisson 500 ------- 0 0.0 1.0 26 26
+ 0.144337 0 1 poisson 500 ------- 0 0.0 1.0 44 44
- 0.144689 0 1 poisson 500 ------- 0 0.0 1.0 30 30
r 0.146689 0 1 poisson 500 ------- 0 0.0 1.0 27 27
- 0.148689 0 1 poisson 500 ------- 0 0.0 1.0 31 31
r 0.150689 0 1 poisson 500 ------- 0 0.0 1.0 28 28
- 0.152689 0 1 poisson 500 ------- 0 0.0 1.0 32 32
r 0.154689 0 1 poisson 500 ------- 0 0.0 1.0 29 29
+ 0.15641 0 1 poisson 500 ------- 0 0.0 1.0 45 45
- 0.156689 0 1 poisson 500 ------- 0 0.0 1.0 33 33
+ 0.157795 0 1 poisson 500 ------- 0 0.0 1.0 46 46
r 0.158689 0 1 poisson 500 ------- 0 0.0 1.0 30 30
- 0.160689 0 1 poisson 500 ------- 0 0.0 1.0 34 34
+ 0.160706 0 1 poisson 500 ------- 0 0.0 1.0 47 47
r 0.162689 0 1 poisson 500 ------- 0 0.0 1.0 31 31
- 0.164689 0 1 poisson 500 ------- 0 0.0 1.0 35 35
+ 0.166292 0 1 poisson 500 ------- 0 0.0 1.0 48 48
r 0.166689 0 1 poisson 500 ------- 0 0.0 1.0 32 32
+ 0.167365 0 1 poisson 500 ------- 0 0.0 1.0 49 49
- 0.168689 0 1 poisson 500 ------- 0 0.0 1.0 36 36
r 0.170689 0 1 poisson 500 ------- 0 0.0 1.0 33 33
+ 0.170989 0 1 poisson 500 ------- 0 0.0 1.0 50 50
+ 0.171945 0 1 poisson 500 ------- 0 0.0 1.0 51 51
- 0.172689 0 1 poisson 500 ------- 0 0.0 1.0 37 37
+ 0.173564 0 1 poisson 500 ------- 0 0.0 1.0 52 52
+ 0.173915 0 1 poisson 500 ------- 0 0.0 1.0 53 53
r 0.174689 0 1 poisson 500 ------- 0 0.0 1.0 34 34
- 0.176689 0 1 poisson 500 ------- 0 0.0 1.0 38 38
+ 0.177489 0 1 poisson 500 ------- 0 0.0 1.0 54 54
r 0.178689 0 1 poisson 500 ------- 0 0.0 1.0 35 35
+ 0.17906 0 1 poisson 500 ------- 0 0.0 1.0 55 55
- 0.180689 0 1 poisson 500 ------- 0 0.0 1.0 39 39
+ 0.181337 0 1 poisson 500 ------- 0 0.0 1.0 56 56
r 0.182689 0 1 poisson 500 ------- 0 0.0 1.0 36 36
- 0.184689 0 1 poisson 500 ------- 0 0.0 1.0 40 40
r 0.186689 0 1 poisson 500 ------- 0 0.0 1.0 37 37
- 0.188689 0 1 poisson 500 ------- 0 0.0 1.0 41 41
r 0.190689 0 1 poisson 500 ------- 0 0.0 1.0 38 38
+ 0.190914 0 1 poisson 500 ------- 0 0.0 1.0 57 57
- 0.192689 0 1 poisson 500 ------- 0 0.0 1.0 42 42
+ 0.193893 0 1 poisson 500 ------- 0 0.0 1.0 58 58
r 0.194689 0 1 poisson 500 ------- 0 0.0 1.0 39 39
- 0.196689 0 1 poisson 500 ------- 0 0.0 1.0 43 43
+ 0.198375 0 1 poisson 500 ------- 0 0.0 1.0 59 59
r 0.198689 0 1 poisson 500 ------- 0 0.0 1.0 40 40
+ 0.19902 0 1 poisson 500 ------- 0 0.0 1.0 60 60
+ 0.199166 0 1 poisson 500 ------- 0 0.0 1.0 61 61
+ 0.199854 0 1 poisson 500 ------- 0 0.0 1.0 62 62
- 0.200689 0 1 poisson 500 ------- 0 0.0 1.0 44 44
r 0.202689 0 1 poisson 500 ------- 0 0.0 1.0 41 41
+ 0.204057 0 1 poisson 500 ------- 0 0.0 1.0 63 63
- 0.204689 0 1 poisson 500 ------- 0 0.0 1.0 45 45
+ 0.205028 0 1 poisson 500 ------- 0 0.0 1.0 64 64
r 0.206689 0 1 poisson 500 ------- 0 0.0 1.0 42 42
- 0.208689 0 1 poisson 500 ------- 0 0.0 1.0 46 46
+ 0.20962 0 1 poisson 500 ------- 0 0.0 1.0 65 65
+ 0.209684 0 1 poisson 500 ------- 0 0.0 1.0 66 66
r 0.210689 0 1 poisson 500 ------- 0 0.0 1.0 43 43
- 0.212689 0 1 poisson 500 ------- 0 0.0 1.0 47 47
r 0.214689 0 1 poisson 500 ------- 0 0.0 1.0 44 44
+ 0.216066 0 1 poisson 500 ------- 0 0.0 1.0 67 67
- 0.216689 0 1 poisson 500 ------- 0 0.0 1.0 48 48
+ 0.217959 0 1 poisson 500 ------- 0 0.0 1.0 68 68
r 0.218689 0 1 poisson 500 ------- 0 0.0 1.0 45 45
- 0.220689 0 1 poisson 500 ------- 0 0.0 1.0 49 49
r 0.222689 0 1 poisson 500 ------- 0 0.0 1.0 46 46
- 0.224689 0 1 poisson 500 ------- 0 0.0 1.0 50 50
+ 0.22594 0 1 poisson 500 ------- 0 0.0 1.0 69 69
+ 0.226326 0 1 poisson 500 ------- 0 0.0 1.0 70 70
r 0.226689 0 1 poisson 500 ------- 0 0.0 1.0 47 47
+ 0.228005 0 1 poisson 500 ------- 0 0.0 1.0 71 71
- 0.228689 0 1 poisson 500 ------- 0 0.0 1.0 51 51
+ 0.228826 0 1 poisson 500 ------- 0 0.0 1.0 72 72
r 0.230689 0 1 poisson 500 ------- 0 0.0 1.0 48 48
+ 0.231131 0 1 poisson 500 ------- 0 0.0 1.0 73 73
- 0.232689 0 1 poisson 500 ------- 0 0.0 1.0 52 52
r 0.234689 0 1 poisson 500 ------- 0 0.0 1.0 49 49
- 0.236689 0 1 poisson 500 ------- 0 0.0 1.0 53 53
+ 0.237606 0 1 poisson 500 ------- 0 0.0 1.0 74 74
+ 0.238154 0 1 poisson 500 ------- 0 0.0 1.0 75 75
+ 0.238426 0 1 poisson 500 ------- 0 0.0 1.0 76 76
r 0.238689 0 1 poisson 500 ------- 0 0.0 1.0 50 50
+ 0.239273 0 1 poisson 500 ------- 0 0.0 1.0 77 77
+ 0.23963 0 1 poisson 500 ------- 0 0.0 1.0 78 78
- 0.240689 0 1 poisson 500 ------- 0 0.0 1.0 54 54
+ 0.241054 0 1 poisson 500 ------- 0 0.0 1.0 79 79
+ 0.241872 0 1 poisson 500 ------- 0 0.0 1.0 80 80
+ 0.242461 0 1 poisson 500 ------- 0 0.0 1.0 81 81
r 0.242689 0 1 poisson 500 ------- 0 0.0 1.0 51 51
- 0.244689 0 1 poisson 500 ------- 0 0.0 1.0 55 55
+ 0.245215 0 1 poisson 500 ------- 0 0.0 1.0 82 82
r 0.246689 0 1 poisson 500 ------- 0 0.0 1.0 52 52
+ 0.246768 0 1 poisson 500 ------- 0 0.0 1.0 83 83
+ 0.247312 0 1 poisson 500 ------- 0 0.0 1.0 84 84
+ 0.247962 0 1 poisson 500 ------- 0 0.0 1.0 85 85
- 0.248689 0 1 poisson 500 ------- 0 0.0 1.0 56 56
+ 0.249055 0 1 poisson 500 ------- 0 0.0 1.0 86 86
r 0.250689 0 1 poisson 500 ------- 0 0.0 1.0 53 53
- 0.252689 0 1 poisson 500 ------- 0 0.0 1.0 57 57
+ 0.254115 0 1 poisson 500 ------- 0 0.0 1.0 87 87
r 0.254689 0 1 poisson 500 ------- 0 0.0 1.0 54 54
+ 0.256516 0 1 poisson 500 ------- 0 0.0 1.0 88 88
- 0.256689 0 1 poisson 500 ------- 0 0.0 1.0 58 58
+ 0.258129 0 1 poisson 500 ------- 0 0.0 1.0 89 89
r 0.258689 0 1 poisson 500 ------- 0 0.0 1.0 55 55
- 0.260689 0 1 poisson 500 ------- 0 0.0 1.0 59 59
+ 0.260755 0 1 poisson 500 ------- 0 0.0 1.0 90 90
r 0.262689 0 1 poisson 500 ------- 0 0.0 1.0 56 56
- 0.264689 0 1 poisson 500 ------- 0 0.0 1.0 60 60
r 0.266689 0 1 poisson 500 ------- 0 0.0 1.0 57 57
- 0.268689 0 1 poisson 500 ------- 0 0.0 1.0 61 61
r 0.270689 0 1 poisson 500 ------- 0 0.0 1.0 58 58
- 0.272689 0 1 poisson 500 ------- 0 0.0 1.0 62 62
r 0.274689 0 1 poisson 500 ------- 0 0.0 1.0 59 59
- 0.276689 0 1 poisson 500 ------- 0 0.0 1.0 63 63
r 0.278689 0 1 poisson 500 ------- 0 0.0 1.0 60 60
- 0.280689 0 1 poisson 500 ------- 0 0.0 1.0 64 64
r 0.282689 0 1 poisson 500 ------- 0 0.0 1.0 61 61
+ 0.28383 0 1 poisson 500 ------- 0 0.0 1.0 91 91
- 0.284689 0 1 poisson 500 ------- 0 0.0 1.0 65 65
r 0.286689 0 1 poisson 500 ------- 0 0.0 1.0 62 62
- 0.288689 0 1 poisson 500 ------- 0 0.0 1.0 66 66
+ 0.290453 0 1 poisson 500 ------- 0 0.0 1.0 92 92
r 0.290689 0 1 poisson 500 ------- 0 0.0 1.0 63 63
- 0.292689 0 1 poisson 500 ------- 0 0.0 1.0 67 67
+ 0.293392 0 1 poisson 500 ------- 0 0.0 1.0 93 93
+ 0.29436 0 1 poisson 500 ------- 0 0.0 1.0 94 94
+ 0.294605 0 1 poisson 500 ------- 0 0.0 1.0 95 95
r 0.294689 0 1 poisson 500 ------- 0 0.0 1.0 64 64
- 0.296689 0 1 poisson 500 ------- 0 0.0 1.0 68 68
r 0.298689 0 1 poisson 500 ------- 0 0.0 1.0 65 65
- 0.300689 0 1 poisson 500 ------- 0 0.0 1.0 69 69
r 0.302689 0 1 poisson 500 ------- 0 0.0 1.0 66 66
+ 0.303719 0 1 poisson 500 ------- 0 0.0 1.0 96 96
- 0.304689 0 1 poisson 500 ------- 0 0.0 1.0 70 70
+ 0.306405 0 1 poisson 500 ------- 0 0.0 1.0 97 97
r 0.306689 0 1 poisson 500 ------- 0 0.0 1.0 67 67
- 0.308689 0 1 poisson 500 ------- 0 0.0 1.0 71 71
+ 0.309571 0 1 poisson 500 ------- 0 0.0 1.0 98 98
r 0.310689 0 1 poisson 500 ------- 0 0.0 1.0 68 68
- 0.312689 0 1 poisson 500 ------- 0 0.0 1.0 72 72
r 0.314689 0 1 poisson 500 ------- 0 0.0 1.0 69 69
- 0.316689 0 1 poisson 500 ------- 0 0.0 1.0 73 73
r 0.318689 0 1 poisson 500 ------- 0 0.0 1.0 70 70
- 0.320689 0 1 poisson 500 ------- 0 0.0 1.0 74 74
r 0.322689 0 1 poisson 500 ------- 0 0.0 1.0 71 71
- 0.324689 0 1 poisson 500 ------- 0 0.0 1.0 75 75
+ 0.324768 0 1 poisson 500 ------- 0 0.0 1.0 99 99
r 0.326689 0 1 poisson 500 ------- 0 0.0 1.0 72 72
+ 0.327792 0 1 poisson 500 ------- 0 0.0 1.0 100 100
+ 0.328129 0 1 poisson 500 ------- 0 0.0 1.0 101 101
+ 0.32847 0 1 poisson 500 ------- 0 0.0 1.0 102 102
- 0.328689 0 1 poisson 500 ------- 0 0.0 1.0 76 76
+ 0.329046 0 1 poisson 500 ------- 0 0.0 1.0 103 103
r 0.330689 0 1 poisson 500 ------- 0 0.0 1.0 73 73
- 0.332689 0 1 poisson 500 ------- 0 0.0 1.0 77 77
+ 0.333752 0 1 poisson 500 ------- 0 0.0 1.0 104 104
r 0.334689 0 1 poisson 500 ------- 0 0.0 1.0 74 74
- 0.336689 0 1 poisson 500 ------- 0 0.0 1.0 78 78
r 0.338689 0 1 poisson 500 ------- 0 0.0 1.0 75 75
- 0.340689 0 1 poisson 500 ------- 0 0.0 1.0 79 79
r 0.342689 0 1 poisson 500 ------- 0 0.0 1.0 76 76
+ 0.342935 0 1 poisson 500 ------- 0 0.0 1.0 105 105
+ 0.343684 0 1 poisson 500 ------- 0 0.0 1.0 106 106
- 0.344689 0 1 poisson 500 ------- 0 0.0 1.0 80 80
+ 0.344979 0 1 poisson 500 ------- 0 0.0 1.0 107 107
+ 0.345609 0 1 poisson 500 ------- 0 0.0 1.0 108 108
r 0.346689 0 1 poisson 500 ------- 0 0.0 1.0 77 77
+ 0.347349 0 1 poisson 500 ------- 0 0.0 1.0 109 109
- 0.348689 0 1 poisson 500 ------- 0 0.0 1.0 81 81
+ 0.349471 0 1 poisson 500 ------- 0 0.0 1.0 110 110
r 0.350689 0 1 poisson 500 ------- 0 0.0 1.0 78 78
- 0.352689 0 1 poisson 500 ------- 0 0.0 1.0 82 82
+ 0.353663 0 1 poisson 500 ------- 0 0.0 1.0 111 111
r 0.354689 0 1 poisson 500 ------- 0 0.0 1.0 79 79
- 0.356689 0 1 poisson 500 ------- 0 0.0 1.0 83 83
r 0.358689 0 1 poisson 500 ------- 0 0.0 1.0 80 80
- 0.360689 0 1 poisson 500 ------- 0 0.0 1.0 84 84
r 0.362689 0 1 poisson 500 ------- 0 0.0 1.0 81 81
- 0.364689 0 1 poisson 500 ------- 0 0.0 1.0 85 85
+ 0.36469 0 1 poisson 500 ------- 0 0.0 1.0 112 112
r 0.366689 0 1 poisson 500 ------- 0 0.0 1.0 82 82
+ 0.36688 0 1 poisson 500 ------- 0 0.0 1.0 113 113
- 0.368689 0 1 poisson 500 ------- 0 0.0 1.0 86 86
+ 0.369086 0 1 poisson 500 ------- 0 0.0 1.0 114 114
r 0.370689 0 1 poisson 500 ------- 0 0.0 1.0 83 83
+ 0.372033 0 1 poisson 500 ------- 0 0.0 1.0 115 115
- 0.372689 0 1 poisson 500 ------- 0 0.0 1.0 87 87
r 0.374689 0 1 poisson 500 ------- 0 0.0 1.0 84 84
- 0.376689 0 1 poisson 500 ------- 0 0.0 1.0 88 88
+ 0.377705 0 1 poisson 500 ------- 0 0.0 1.0 116 116
+ 0.377988 0 1 poisson 500 ------- 0 0.0 1.0 117 117
r 0.378689 0 1 poisson 500 ------- 0 0.0 1.0 85 85
- 0.380689 0 1 poisson 500 ------- 0 0.0 1.0 89 89
+ 0.382098 0 1 poisson 500 ------- 0 0.0 1.0 118 118
r 0.382689 0 1 poisson 500 ------- 0 0.0 1.0 86 86
+ 0.384346 0 1 poisson 500 ------- 0 0.0 1.0 119 119
- 0.384689 0 1 poisson 500 ------- 0 0.0 1.0 90 90
+ 0.38664 0 1 poisson 500 ------- 0 0.0 1.0 120 120
r 0.386689 0 1 poisson 500 ------- 0 0.0 1.0 87 87
- 0.388689 0 1 poisson 500 ------- 0 0.0 1.0 91 91
+ 0.389035 0 1 poisson 500 ------- 0 0.0 1.0 121 121
+ 0.389853 0 1 poisson 500 ------- 0 0.0 1.0 122 122
r 0.390689 0 1 poisson 500 ------- 0 0.0 1.0 88 88
+ 0.391784 0 1 poisson 500 ------- 0 0.0 1.0 123 123
+ 0.392074 0 1 poisson 500 ------- 0 0.0 1.0 124 124
- 0.392689 0 1 poisson 500 ------- 0 0.0 1.0 92 92
+ 0.393337 0 1 poisson 500 ------- 0 0.0 1.0 125 125
+ 0.393768 0 1 poisson 500 ------- 0 0.0 1.0 126 126
r 0.394689 0 1 poisson 500 ------- 0 0.0 1.0 89 89
- 0.396689 0 1 poisson 500 ------- 0 0.0 1.0 93 93
+ 0.39868 0 1 poisson 500 ------- 0 0.0 1.0 127 127
r 0.398689 0 1 poisson 500 ------- 0 0.0 1.0 90 90
- 0.400689 0 1 poisson 500 ------- 0 0.0 1.0 94 94
+ 0.402535 0 1 poisson 500 ------- 0 0.0 1.0 128 128
r 0.402689 0 1 poisson 500 ------- 0 0.0 1.0 91 91
- 0.404689 0 1 poisson 500 ------- 0 0.0 1.0 95 95
r 0.406689 0 1 poisson 500 ------- 0 0.0 1.0 92 92
- 0.408689 0 1 poisson 500 ------- 0 0.0 1.0 96 96
+ 0.409845 0 1 poisson 500 ------- 0 0.0 1.0 129 129
r 0.410689 0 1 poisson 500 ------- 0 0.0 1.0 93 93
- 0.412689 0 1 poisson 500 ------- 0 0.0 1.0 97 97
+ 0.414468 0 1 poisson 500 ------- 0 0.0 1.0 130 130
r 0.414689 0 1 poisson 500 ------- 0 0.0 1.0 94 94
+ 0.414835 0 1 poisson 500 ------- 0 0.0 1.0 131 131
- 0.416689 0 1 poisson 500 ------- 0 0.0 1.0 98 98
r 0.418689 0 1 poisson 500 ------- 0 0.0 1.0 95 95
- 0.420689 0 1 poisson 500 ------- 0 0.0 1.0 99 99
r 0.422689 0 1 poisson 500 ------- 0 0.0 1.0 96 96
+ 0.423452 0 1 poisson 500 ------- 0 0.0 1.0 132 132
- 0.424689 0 1 poisson 500 ------- 0 0.0 1.0 100 100
+ 0.424911 0 1 poisson 500 ------- 0 0.0 1.0 133 133
+ 0.425839 0 1 poisson 500 ------- 0 0.0 1.0 134 134
r 0.426689 0 1 poisson 500 ------- 0 0.0 1.0 97 97
- 0.428689 0 1 poisson 500 ------- 0 0.0 1.0 101 101
+ 0.429795 0 1 poisson 500 ------- 0 0.0 1.0 135 135
+ 0.430291 0 1 poisson 500 ------- 0 0.0 1.0 136 136
r 0.430689 0 1 poisson 500 ------- 0 0.0 1.0 98 98
- 0.432689 0 1 poisson 500 ------- 0 0.0 1.0 102 102
r 0.434689 0 1 poisson 500 ------- 0 0.0 1.0 99 99
- 0.436689 0 1 poisson 500 ------- 0 0.0 1.0 103 103
+ 0.437852 0 1 poisson 500 ------- 0 0.0 1.0 137 137
r 0.438689 0 1 poisson 500 ------- 0 0.0 1.0 100 100
- 0.440689 0 1 poisson 500 ------- 0 0.0 1.0 104 104
+ 0.440729 0 1 poisson 500 ------- 0 0.0 1.0 138 138
+ 0.441344 0 1 poisson 500 ------- 0 0.0 1.0 139 139
+ 0.442547 0 1 poisson 500 ------- 0 0.0 1.0 140 140
r 0.442689 0 1 poisson 500 ------- 0 0.0 1.0 101 101
- 0.444689 0 1 poisson 500 ------- 0 0.0 1.0 105 105
+ 0.444776 0 1 poisson 500 ------- 0 0.0 1.0 141 141
r 0.446689 0 1 poisson 500 ------- 0 0.0 1.0 102 102
- 0.448689 0 1 poisson 500 ------- 0 0.0 1.0 106 106
+ 0.448707 0 1 poisson 500 ------- 0 0.0 1.0 142 142
r 0.450689 0 1 poisson 500 ------- 0 0.0 1.0 103 103
+ 0.450885 0 1 poisson 500 ------- 0 0.0 1.0 143 143
+ 0.45105 0 1 poisson 500 ------- 0 0.0 1.0 144 144
- 0.452689 0 1 poisson 500 ------- 0 0.0 1.0 107 107
+ 0.453121 0 1 poisson 500 ------- 0 0.0 1.0 145 145
+ 0.453398 0 1 poisson 500 ------- 0 0.0 1.0 146 146
+ 0.453513 0 1 poisson 500 ------- 0 0.0 1.0 147 147
+ 0.453777 0 1 poisson 500 ------- 0 0.0 1.0 148 148
r 0.454689 0 1 poisson 500 ------- 0 0.0 1.0 104 104
- 0.456689 0 1 poisson 500 ------- 0 0.0 1.0 108 108
r 0.458689 0 1 poisson 500 ------- 0 0.0 1.0 105 105
+ 0.458805 0 1 poisson 500 ------- 0 0.0 1.0 149 149
+ 0.458955 0 1 poisson 500 ------- 0 0.0 1.0 150 150
+ 0.460597 0 1 poisson 500 ------- 0 0.0 1.0 151 151
- 0.460689 0 1 poisson 500 ------- 0 0.0 1.0 109 109
+ 0.462264 0 1 poisson 500 ------- 0 0.0 1.0 152 152
r 0.462689 0 1 poisson 500 ------- 0 0.0 1.0 106 106
- 0.464689 0 1 poisson 500 ------- 0 0.0 1.0 110 110
r 0.466689 0 1 poisson 500 ------- 0 0.0 1.0 107 107
- 0.468689 0 1 poisson 500 ------- 0 0.0 1.0 111 111
+ 0.469492 0 1 poisson 500 ------- 0 0.0 1.0 153 153
+ 0.469569 0 1 poisson 500 ------- 0 0.0 1.0 154 154
r 0.470689 0 1 poisson 500 ------- 0 0.0 1.0 108 108
+ 0.471322 0 1 poisson 500 ------- 0 0.0 1.0 155 155
+ 0.47166 0 1 poisson 500 ------- 0 0.0 1.0 156 156
+ 0.4725 0 1 poisson 500 ------- 0 0.0 1.0 157 157
- 0.472689 0 1 poisson 500 ------- 0 0.0 1.0 112 112
r 0.474689 0 1 poisson 500 ------- 0 0.0 1.0 109 109
+ 0.476063 0 1 poisson 500 ------- 0 0.0 1.0 158 158
- 0.476689 0 1 poisson 500 ------- 0 0.0 1.0 113 113
+ 0.478023 0 1 poisson 500 ------- 0 0.0 1.0 159 159
r 0.478689 0 1 poisson 500 ------- 0 0.0 1.0 110 110
+ 0.478792 0 1 poisson 500 ------- 0 0.0 1.0 160 160
- 0.480689 0 1 poisson 500 ------- 0 0.0 1.0 114 114
r 0.482689 0 1 poisson 500 ------- 0 0.0 1.0 111 111
+ 0.483006 0 1 poisson 500 ------- 0 0.0 1.0 161 161
+ 0.484053 0 1 poisson 500 ------- 0 0.0 1.0 162 162
- 0.484689 0 1 poisson 500 ------- 0 0.0 1.0 115 115
+ 0.485172 0 1 poisson 500 ------- 0 0.0 1.0 163 163
r 0.486689 0 1 poisson 500 ------- 0 0.0 1.0 112 112
- 0.488689 0 1 poisson 500 ------- 0 0.0 1.0 116 116
+ 0.490028 0 1 poisson 500 ------- 0 0.0 1.0 164 164
r 0.490689 0 1 poisson 500 ------- 0 0.0 1.0 113 113
- 0.492689 0 1 poisson 500 ------- 0 0.0 1.0 117 117
+ 0.493572 0 1 poisson 500 ------- 0 0.0 1.0 165 165
r 0.494689 0 1 poisson 500 ------- 0 0.0 1.0 114 114
+ 0.496162 0 1 poisson 500 ------- 0 0.0 1.0 166 166
- 0.496689 0 1 poisson 500 ------- 0 0.0 1.0 118 118
+ 0.497472 0 1 poisson 500 ------- 0 0.0 1.0 167 167
+ 0.498599 0 1 poisson 500 ------- 0 0.0 1.0 168 168
d 0.498599 0 1 poisson 500 ------- 0 0.0 1.0 168 168
r 0.498689 0 1 poisson 500 ------- 0 0.0 1.0 115 115
+ 0.499018 0 1 poisson 500 ------- 0 0.0 1.0 169 169
d 0.499018 0 1 poisson 500 ------- 0 0.0 1.0 169 169
- 0.500689 0 1 poisson 500 ------- 0 0.0 1.0 119 119
+ 0.502409 0 1 poisson 500 ------- 0 0.0 1.0 170 170
r 0.502689 0 1 poisson 500 ------- 0 0.0 1.0 116 116
- 0.504689 0 1 poisson 500 ------- 0 0.0 1.0 120 120
r 0.506689 0 1 poisson 500 ------- 0 0.0 1.0 117 117
+ 0.50719 0 1 poisson 500 ------- 0 0.0 1.0 171 171
- 0.508689 0 1 poisson 500 ------- 0 0.0 1.0 121 121
r 0.510689 0 1 poisson 500 ------- 0 0.0 1.0 118 118
+ 0.511578 0 1 poisson 500 ------- 0 0.0 1.0 172 172
- 0.512689 0 1 poisson 500 ------- 0 0.0 1.0 122 122
r 0.514689 0 1 poisson 500 ------- 0 0.0 1.0 119 119
- 0.516689 0 1 poisson 500 ------- 0 0.0 1.0 123 123
r 0.518689 0 1 poisson 500 ------- 0 0.0 1.0 120 120
+ 0.520059 0 1 poisson 500 ------- 0 0.0 1.0 173 173
- 0.520689 0 1 poisson 500 ------- 0 0.0 1.0 124 124
r 0.522689 0 1 poisson 500 ------- 0 0.0 1.0 121 121
- 0.524689 0 1 poisson 500 ------- 0 0.0 1.0 125 125
r 0.526689 0 1 poisson 500 ------- 0 0.0 1.0 122 122
+ 0.526882 0 1 poisson 500 ------- 0 0.0 1.0 174 174
- 0.528689 0 1 poisson 500 ------- 0 0.0 1.0 126 126
r 0.530689 0 1 poisson 500 ------- 0 0.0 1.0 123 123
+ 0.53255 0 1 poisson 500 ------- 0 0.0 1.0 175 175
- 0.532689 0 1 poisson 500 ------- 0 0.0 1.0 127 127
r 0.534689 0 1 poisson 500 ------- 0 0.0 1.0 124 124
- 0.536689 0 1 poisson 500 ------- 0 0.0 1.0 128 128
r 0.538689 0 1 poisson 500 ------- 0 0.0 1.0 125 125
+ 0.540337 0 1 poisson 500 ------- 0 0.0 1.0 176 176
- 0.540689 0 1 poisson 500 ------- 0 0.0 1.0 129 129
r 0.542689 0 1 poisson 500 ------- 0 0.0 1.0 126 126
+ 0.543068 0 1 poisson 500 ------- 0 0.0 1.0 177 177
- 0.544689 0 1 poisson 500 ------- 0 0.0 1.0 130 130
r 0.546689 0 1 poisson 500 ------- 0 0.0 1.0 127 127
+ 0.547175 0 1 poisson 500 ------- 0 0.0 1.0 178 178
- 0.548689 0 1 poisson 500 ------- 0 0.0 1.0 131 131
r 0.550689 0 1 poisson 500 ------- 0 0.0 1.0 128 128
- 0.552689 0 1 poisson 500 ------- 0 0.0 1.0 132 132
r 0.554689 0 1 poisson 500 ------- 0 0.0 1.0 129 129
+ 0.554893 0 1 poisson 500 ------- 0 0.0 1.0 179 179
+ 0.555019 0 1 poisson 500 ------- 0 0.0 1.0 180 180
+ 0.555541 0 1 poisson 500 ------- 0 0.0 1.0 181 181
+ 0.55646 0 1 poisson 500 ------- 0 0.0 1.0 182 182
- 0.556689 0 1 poisson 500 ------- 0 0.0 1.0 133 133
r 0.558689 0 1 poisson 500 ------- 0 0.0 1.0 130 130
+ 0.558709 0 1 poisson 500 ------- 0 0.0 1.0 183 183
+ 0.559205 0 1 poisson 500 ------- 0 0.0 1.0 184 184
- 0.560689 0 1 poisson 500 ------- 0 0.0 1.0 134 134
+ 0.561697 0 1 poisson 500 ------- 0 0.0 1.0 185 185
r 0.562689 0 1 poisson 500 ------- 0 0.0 1.0 131 131
+ 0.563323 0 1 poisson 500 ------- 0 0.0 1.0 186 186
d 0.563323 0 1 poisson 500 ------- 0 0.0 1.0 186 186
- 0.564689 0 1 poisson 500 ------- 0 0.0 1.0 135 135
r 0.566689 0 1 poisson 500 ------- 0 0.0 1.0 132 132
- 0.568689 0 1 poisson 500 ------- 0 0.0 1.0 136 136
+ 0.568767 0 1 poisson 500 ------- 0 0.0 1.0 187 187
+ 0.570219 0 1 poisson 500 ------- 0 0.0 1.0 188 188
r 0.570689 0 1 poisson 500 ------- 0 0.0 1.0 133 133
+ 0.572551 0 1 poisson 500 ------- 0 0.0 1.0 189 189
d 0.572551 0 1 poisson 500 ------- 0 0.0 1.0 189 189
- 0.572689 0 1 poisson 500 ------- 0 0.0 1.0 137 137
+ 0.573058 0 1 poisson 500 ------- 0 0.0 1.0 190 190
+ 0.573633 0 1 poisson 500 ------- 0 0.0 1.0 191 191
d 0.573633 0 1 poisson 500 ------- 0 0.0 1.0 191 191
+ 0.574044 0 1 poisson 500 ------- 0 0.0 1.0 192 192
d 0.574044 0 1 poisson 500 ------- 0 0.0 1.0 192 192
r 0.574689 0 1 poisson 500 ------- 0 0.0 1.0 134 134
- 0.576689 0 1 poisson 500 ------- 0 0.0 1.0 138 138
r 0.578689 0 1 poisson 500 ------- 0 0.0 1.0 135 135
- 0.580689 0 1 poisson 500 ------- 0 0.0 1.0 139 139
r 0.582689 0 1 poisson 500 ------- 0 0.0 1.0 136 136
- 0.584689 0 1 poisson 500 ------- 0 0.0 1.0 140 140
r 0.586689 0 1 poisson 500 ------- 0 0.0 1.0 137 137
- 0.588689 0 1 poisson 500 ------- 0 0.0 1.0 141 141
+ 0.589102 0 1 poisson 500 ------- 0 0.0 1.0 193 193
+ 0.589719 0 1 poisson 500 ------- 0 0.0 1.0 194 194
r 0.590689 0 1 poisson 500 ------- 0 0.0 1.0 138 138
- 0.592689 0 1 poisson 500 ------- 0 0.0 1.0 142 142
r 0.594689 0 1 poisson 500 ------- 0 0.0 1.0 139 139
+ 0.596588 0 1 poisson 500 ------- 0 0.0 1.0 195 195
- 0.596689 0 1 poisson 500 ------- 0 0.0 1.0 143 143
r 0.598689 0 1 poisson 500 ------- 0 0.0 1.0 140 140
- 0.600689 0 1 poisson 500 ------- 0 0.0 1.0 144 144
+ 0.600732 0 1 poisson 500 ------- 0 0.0 1.0 196 196
+ 0.601203 0 1 poisson 500 ------- 0 0.0 1.0 197 197
r 0.602689 0 1 poisson 500 ------- 0 0.0 1.0 141 141
+ 0.603175 0 1 poisson 500 ------- 0 0.0 1.0 198 198
- 0.604689 0 1 poisson 500 ------- 0 0.0 1.0 145 145
r 0.606689 0 1 poisson 500 ------- 0 0.0 1.0 142 142
+ 0.608076 0 1 poisson 500 ------- 0 0.0 1.0 199 199
- 0.608689 0 1 poisson 500 ------- 0 0.0 1.0 146 146
r 0.610689 0 1 poisson 500 ------- 0 0.0 1.0 143 143
+ 0.61157 0 1 poisson 500 ------- 0 0.0 1.0 200 200
- 0.612689 0 1 poisson 500 ------- 0 0.0 1.0 147 147
r 0.614689 0 1 poisson 500 ------- 0 0.0 1.0 144 144
- 0.616689 0 1 poisson 500 ------- 0 0.0 1.0 148 148
r 0.618689 0 1 poisson 500 ------- 0 0.0 1.0 145 145
- 0.620689 0 1 poisson 500 ------- 0 0.0 1.0 149 149
+ 0.622011 0 1 poisson 500 ------- 0 0.0 1.0 201 201
r 0.622689 0 1 poisson 500 ------- 0 0.0 1.0 146 146
+ 0.622947 0 1 poisson 500 ------- 0 0.0 1.0 202 202
- 0.624689 0 1 poisson 500 ------- 0 0.0 1.0 150 150
+ 0.625186 0 1 poisson 500 ------- 0 0.0 1.0 203 203
r 0.626689 0 1 poisson 500 ------- 0 0.0 1.0 147 147
+ 0.627102 0 1 poisson 500 ------- 0 0.0 1.0 204 204
- 0.628689 0 1 poisson 500 ------- 0 0.0 1.0 151 151
+ 0.630243 0 1 poisson 500 ------- 0 0.0 1.0 205 205
r 0.630689 0 1 poisson 500 ------- 0 0.0 1.0 148 148
- 0.632689 0 1 poisson 500 ------- 0 0.0 1.0 152 152
r 0.634689 0 1 poisson 500 ------- 0 0.0 1.0 149 149
- 0.636689 0 1 poisson 500 ------- 0 0.0 1.0 153 153
r 0.638689 0 1 poisson 500 ------- 0 0.0 1.0 150 150
- 0.640689 0 1 poisson 500 ------- 0 0.0 1.0 154 154
r 0.642689 0 1 poisson 500 ------- 0 0.0 1.0 151 151
+ 0.64314 0 1 poisson 500 ------- 0 0.0 1.0 206 206
+ 0.64413 0 1 poisson 500 ------- 0 0.0 1.0 207 207
- 0.644689 0 1 poisson 500 ------- 0 0.0 1.0 155 155
r 0.646689 0 1 poisson 500 ------- 0 0.0 1.0 152 152
+ 0.647684 0 1 poisson 500 ------- 0 0.0 1.0 208 208
- 0.648689 0 1 poisson 500 ------- 0 0.0 1.0 156 156
+ 0.649702 0 1 poisson 500 ------- 0 0.0 1.0 209 209
+ 0.649988 0 1 poisson 500 ------- 0 0.0 1.0 210 210
r 0.650689 0 1 poisson 500 ------- 0 0.0 1.0 153 153
- 0.652689 0 1 poisson 500 ------- 0 0.0 1.0 157 157
+ 0.652763 0 1 poisson 500 ------- 0 0.0 1.0 211 211
r 0.654689 0 1 poisson 500 ------- 0 0.0 1.0 154 154
+ 0.654734 0 1 poisson 500 ------- 0 0.0 1.0 212 212
- 0.656689 0 1 poisson 500 ------- 0 0.0 1.0 158 158
r 0.658689 0 1 poisson 500 ------- 0 0.0 1.0 155 155
- 0.660689 0 1 poisson 500 ------- 0 0.0 1.0 159 159
r 0.662689 0 1 poisson 500 ------- 0 0.0 1.0 156 156
+ 0.66333 0 1 poisson 500 ------- 0 0.0 1.0 213 213
+ 0.663364 0 1 poisson 500 ------- 0 0.0 1.0 214 214
- 0.664689 0 1 poisson 500 ------- 0 0.0 1.0 160 160
+ 0.665598 0 1 poisson 500 ------- 0 0.0 1.0 215 215
r 0.666689 0 1 poisson 500 ------- 0 0.0 1.0 157 157
+ 0.66742 0 1 poisson 500 ------- 0 0.0 1.0 216 216
d 0.66742 0 1 poisson 500 ------- 0 0.0 1.0 216 216
+ 0.668599 0 1 poisson 500 ------- 0 0.0 1.0 217 217
d 0.668599 0 1 poisson 500 ------- 0 0.0 1.0 217 217
- 0.668689 0 1 poisson 500 ------- 0 0.0 1.0 161 161
r 0.670689 0 1 poisson 500 ------- 0 0.0 1.0 158 158
+ 0.671101 0 1 poisson 500 ------- 0 0.0 1.0 218 218
- 0.672689 0 1 poisson 500 ------- 0 0.0 1.0 162 162
+ 0.67453 0 1 poisson 500 ------- 0 0.0 1.0 219 219
r 0.674689 0 1 poisson 500 ------- 0 0.0 1.0 159 159
- 0.676689 0 1 poisson 500 ------- 0 0.0 1.0 163 163
+ 0.67729 0 1 poisson 500 ------- 0 0.0 1.0 220 220
+ 0.677431 0 1 poisson 500 ------- 0 0.0 1.0 221 221
d 0.677431 0 1 poisson 500 ------- 0 0.0 1.0 221 221
r 0.678689 0 1 poisson 500 ------- 0 0.0 1.0 160 160
- 0.680689 0 1 poisson 500 ------- 0 0.0 1.0 164 164
r 0.682689 0 1 poisson 500 ------- 0 0.0 1.0 161 161
- 0.684689 0 1 poisson 500 ------- 0 0.0 1.0 165 165
+ 0.686331 0 1 poisson 500 ------- 0 0.0 1.0 222 222
r 0.686689 0 1 poisson 500 ------- 0 0.0 1.0 162 162
+ 0.68749 0 1 poisson 500 ------- 0 0.0 1.0 223 223
- 0.688689 0 1 poisson 500 ------- 0 0.0 1.0 166 166
r 0.690689 0 1 poisson 500 ------- 0 0.0 1.0 163 163
+ 0.692554 0 1 poisson 500 ------- 0 0.0 1.0 224 224
- 0.692689 0 1 poisson 500 ------- 0 0.0 1.0 167 167
r 0.694689 0 1 poisson 500 ------- 0 0.0 1.0 164 164
+ 0.694715 0 1 poisson 500 ------- 0 0.0 1.0 225 225
+ 0.69594 0 1 poisson 500 ------- 0 0.0 1.0 226 226
d 0.69594 0 1 poisson 500 ------- 0 0.0 1.0 226 226
- 0.696689 0 1 poisson 500 ------- 0 0.0 1.0 170 170
r 0.698689 0 1 poisson 500 ------- 0 0.0 1.0 165 165
- 0.700689 0 1 poisson 500 ------- 0 0.0 1.0 171 171
+ 0.701372 0 1 poisson 500 ------- 0 0.0 1.0 227 227
r 0.702689 0 1 poisson 500 ------- 0 0.0 1.0 166 166
- 0.704689 0 1 poisson 500 ------- 0 0.0 1.0 172 172
r 0.706689 0 1 poisson 500 ------- 0 0.0 1.0 167 167
- 0.708689 0 1 poisson 500 ------- 0 0.0 1.0 173 173
+ 0.709089 0 1 poisson 500 ------- 0 0.0 1.0 228 228