V -t * -v 1.0a5 -a 0
A -t * -n 1 -p 0 -o 0xffffffff -c 31 -a 1
A -t * -h 1 -m 2147483647 -s 0
n -t * -a 0 -s 0 -S UP -v circle -c black -i black
n -t * -a 1 -s 1 -S UP -v circle -c black -i black
l -t * -s 0 -d 1 -S UP -r 1000000 -D 0.01 -c black -o right
q -t * -s 1 -d 0 -a 0.5
q -t * -s 0 -d 1 -a 0.5
+ -t 0 -s 0 -d 1 -p poisson -e 500 -c 0 -i 0 -a 0 -x {0.0 1.0 0 ------- null}
- -t 0 -s 0 -d 1 -p poisson -e 500 -c 0 -i 0 -a 0 -x {0.0 1.0 0 ------- null}
h -t 0 -s 0 -d 1 -p poisson -e 500 -c 0 -i 0 -a 0 -x {0.0 1.0 -1 ------- null}
r -t 0.014 -s 0 -d 1 -p poisson -e 500 -c 0 -i 0 -a 0 -x {0.0 1.0 0 ------- null}
+ -t 0.127804946776655 -s 0 -d 1 -p poisson -e 500 -c 0 -i 1 -a 0 -x {0.0 1.0 1 ------- null}
- -t 0.127804946776655 -s 0 -d 1 -p poisson -e 500 -c 0 -i 1 -a 0 -x {0.0 1.0 1 ------- null}
h -t 0.127804946776655 -s 0 -d 1 -p poisson -e 500 -c 0 -i 1 -a 0 -x {0.0 1.0 -1 ------- null}
+ -t 0.137200171534219 -s 0 -d 1 -p poisson -e 500 -c 0 -i 2 -a 0 -x {0.0 1.0 2 ------- null}
- -t 0.137200171534219 -s 0 -d 1 -p poisson -e 500 -c 0 -i 2 -a 0 -x {0.0 1.0 2 ------- null}
h -t 0.137200171534219 -s 0 -d 1 -p poisson -e 500 -c 0 -i 2 -a 0 -x {0.0 1.0 -1 ------- null}
r -t 0.141804946776655 -s 0 -d 1 -p poisson -e 500 -c 0 -i 1 -a 0 -x {0.0 1.0 1 ------- null}
r -t 0.151200171534219 -s 0 -d 1 -p poisson -e 500 -c 0 -i 2 -a 0 -x {0.0 1.0 2 ------- null}
+ -t 0.205267133986051 -s 0 -d 1 -p poisson -e 500 -c 0 -i 3 -a 0 -x {0.0 1.0 3 ------- null}
- -t 0.205267133986051 -s 0 -d 1 -p poisson -e 500 -c 0 -i 3 -a 0 -x {0.0 1.0 3 ------- null}
h -t 0.205267133986051 -s 0 -d 1 -p poisson -e 500 -c 0 -i 3 -a 0 -x {0.0 1.0 -1 ------- null}
r -t 0.219267133986051 -s 0 -d 1 -p poisson -e 500 -c 0 -i 3 -a 0 -x {0.0 1.0 3 ------- null}
+ -t 0.244131541074135 -s 0 -d 1 -p poisson -e 500 -c 0 -i 4 -a 0 -x {0.0 1.0 4 ------- null}
- -t 0.244131541074135 -s 0 -d 1 -p poisson -e 500 -c 0 -i 4 -a 0 -x {0.0 1.0 4 ------- null}
h -t 0.244131541074135 -s 0 -d 1 -p poisson -e 500 -c 0 -i 4 -a 0 -x {0.0 1.0 -1 ------- null}
+ -t 0.257224618261791 -s 0 -d 1 -p poisson -e 500 -c 0 -i 5 -a 0 -x {0.0 1.0 5 ------- null}
- -t 0.257224618261791 -s 0 -d 1 -p poisson -e 500 -c 0 -i 5 -a 0 -x {0.0 1.0 5 ------- null}
h -t 0.257224618261791 -s 0 -d 1 -p poisson -e 500 -c 0 -i 5 -a 0 -x {0.0 1.0 -1 ------- null}
r -t 0.258131541074135 -s 0 -d 1 -p poisson -e 500 -c 0 -i 4 -a 0 -x {0.0 1.0 4 ------- null}
+ -t 0.260811814934732 -s 0 -d 1 -p poisson -e 500 -c 0 -i 6 -a 0 -x {0.0 1.0 6 ------- null}
- -t 0.261224618261791 -s 0 -d 1 -p poisson -e 500 -c 0 -i 6 -a 0 -x {0.0 1.0 6 ------- null}
h -t 0.261224618261791 -s 0 -d 1 -p poisson -e 500 -c 0 -i 6 -a 0 -x {0.0 1.0 -1 ------- null}
r -t 0.271224618261791 -s 0 -d 1 -p poisson -e 500 -c 0 -i 5 -a 0 -x {0.0 1.0 5 ------- null}
r -t 0.275224618261791 -s 0 -d 1 -p poisson -e 500 -c 0 -i 6 -a 0 -x {0.0 1.0 6 ------- null}
+ -t 0.279398602634469 -s 0 -d 1 -p poisson -e 500 -c 0 -i 7 -a 0 -x {0.0 1.0 7 ------- null}
- -t 0.279398602634469 -s 0 -d 1 -p poisson -e 500 -c 0 -i 7 -a 0 -x {0.0 1.0 7 ------- null}
h -t 0.279398602634469 -s 0 -d 1 -p poisson -e 500 -c 0 -i 7 -a 0 -x {0.0 1.0 -1 ------- null}
+ -t 0.282642725798891 -s 0 -d 1 -p poisson -e 500 -c 0 -i 8 -a 0 -x {0.0 1.0 8 ------- null}
- -t 0.283398602634469 -s 0 -d 1 -p poisson -e 500 -c 0 -i 8 -a 0 -x {0.0 1.0 8 ------- null}
h -t 0.283398602634469 -s 0 -d 1 -p poisson -e 500 -c 0 -i 8 -a 0 -x {0.0 1.0 -1 ------- null}
r -t 0.293398602634469 -s 0 -d 1 -p poisson -e 500 -c 0 -i 7 -a 0 -x {0.0 1.0 7 ------- null}
r -t 0.297398602634469 -s 0 -d 1 -p poisson -e 500 -c 0 -i 8 -a 0 -x {0.0 1.0 8 ------- null}
+ -t 0.305840579805009 -s 0 -d 1 -p poisson -e 500 -c 0 -i 9 -a 0 -x {0.0 1.0 9 ------- null}
- -t 0.305840579805009 -s 0 -d 1 -p poisson -e 500 -c 0 -i 9 -a 0 -x {0.0 1.0 9 ------- null}
h -t 0.305840579805009 -s 0 -d 1 -p poisson -e 500 -c 0 -i 9 -a 0 -x {0.0 1.0 -1 ------- null}
+ -t 0.31300957004947 -s 0 -d 1 -p poisson -e 500 -c 0 -i 10 -a 0 -x {0.0 1.0 10 ------- null}
- -t 0.31300957004947 -s 0 -d 1 -p poisson -e 500 -c 0 -i 10 -a 0 -x {0.0 1.0 10 ------- null}
h -t 0.31300957004947 -s 0 -d 1 -p poisson -e 500 -c 0 -i 10 -a 0 -x {0.0 1.0 -1 ------- null}
r -t 0.319840579805009 -s 0 -d 1 -p poisson -e 500 -c 0 -i 9 -a 0 -x {0.0 1.0 9 ------- null}
r -t 0.32700957004947 -s 0 -d 1 -p poisson -e 500 -c 0 -i 10 -a 0 -x {0.0 1.0 10 ------- null}
+ -t 0.331796100996724 -s 0 -d 1 -p poisson -e 500 -c 0 -i 11 -a 0 -x {0.0 1.0 11 ------- null}
- -t 0.331796100996724 -s 0 -d 1 -p poisson -e 500 -c 0 -i 11 -a 0 -x {0.0 1.0 11 ------- null}
h -t 0.331796100996724 -s 0 -d 1 -p poisson -e 500 -c 0 -i 11 -a 0 -x {0.0 1.0 -1 ------- null}
+ -t 0.33465593675476 -s 0 -d 1 -p poisson -e 500 -c 0 -i 12 -a 0 -x {0.0 1.0 12 ------- null}
- -t 0.335796100996724 -s 0 -d 1 -p poisson -e 500 -c 0 -i 12 -a 0 -x {0.0 1.0 12 ------- null}
h -t 0.335796100996724 -s 0 -d 1 -p poisson -e 500 -c 0 -i 12 -a 0 -x {0.0 1.0 -1 ------- null}
r -t 0.345796100996724 -s 0 -d 1 -p poisson -e 500 -c 0 -i 11 -a 0 -x {0.0 1.0 11 ------- null}
r -t 0.349796100996724 -s 0 -d 1 -p poisson -e 500 -c 0 -i 12 -a 0 -x {0.0 1.0 12 ------- null}
+ -t 0.363567978648505 -s 0 -d 1 -p poisson -e 500 -c 0 -i 13 -a 0 -x {0.0 1.0 13 ------- null}
- -t 0.363567978648505 -s 0 -d 1 -p poisson -e 500 -c 0 -i 13 -a 0 -x {0.0 1.0 13 ------- null}
h -t 0.363567978648505 -s 0 -d 1 -p poisson -e 500 -c 0 -i 13 -a 0 -x {0.0 1.0 -1 ------- null}
r -t 0.377567978648505 -s 0 -d 1 -p poisson -e 500 -c 0 -i 13 -a 0 -x {0.0 1.0 13 ------- null}
+ -t 0.413989488093274 -s 0 -d 1 -p poisson -e 500 -c 0 -i 14 -a 0 -x {0.0 1.0 14 ------- null}
- -t 0.413989488093274 -s 0 -d 1 -p poisson -e 500 -c 0 -i 14 -a 0 -x {0.0 1.0 14 ------- null}
h -t 0.413989488093274 -s 0 -d 1 -p poisson -e 500 -c 0 -i 14 -a 0 -x {0.0 1.0 -1 ------- null}
+ -t 0.42112839034681 -s 0 -d 1 -p poisson -e 500 -c 0 -i 15 -a 0 -x {0.0 1.0 15 ------- null}
- -t 0.42112839034681 -s 0 -d 1 -p poisson -e 500 -c 0 -i 15 -a 0 -x {0.0 1.0 15 ------- null}
h -t 0.42112839034681 -s 0 -d 1 -p poisson -e 500 -c 0 -i 15 -a 0 -x {0.0 1.0 -1 ------- null}
r -t 0.427989488093274 -s 0 -d 1 -p poisson -e 500 -c 0 -i 14 -a 0 -x {0.0 1.0 14 ------- null}
r -t 0.43512839034681 -s 0 -d 1 -p poisson -e 500 -c 0 -i 15 -a 0 -x {0.0 1.0 15 ------- null}
+ -t 0.455900234775229 -s 0 -d 1 -p poisson -e 500 -c 0 -i 16 -a 0 -x {0.0 1.0 16 ------- null}
- -t 0.455900234775229 -s 0 -d 1 -p poisson -e 500 -c 0 -i 16 -a 0 -x {0.0 1.0 16 ------- null}
h -t 0.455900234775229 -s 0 -d 1 -p poisson -e 500 -c 0 -i 16 -a 0 -x {0.0 1.0 -1 ------- null}
+ -t 0.458318467907968 -s 0 -d 1 -p poisson -e 500 -c 0 -i 17 -a 0 -x {0.0 1.0 17 ------- null}
- -t 0.459900234775229 -s 0 -d 1 -p poisson -e 500 -c 0 -i 17 -a 0 -x {0.0 1.0 17 ------- null}
h -t 0.459900234775229 -s 0 -d 1 -p poisson -e 500 -c 0 -i 17 -a 0 -x {0.0 1.0 -1 ------- null}
r -t 0.469900234775229 -s 0 -d 1 -p poisson -e 500 -c 0 -i 16 -a 0 -x {0.0 1.0 16 ------- null}
+ -t 0.472059775681544 -s 0 -d 1 -p poisson -e 500 -c 0 -i 18 -a 0 -x {0.0 1.0 18 ------- null}
- -t 0.472059775681544 -s 0 -d 1 -p poisson -e 500 -c 0 -i 18 -a 0 -x {0.0 1.0 18 ------- null}
h -t 0.472059775681544 -s 0 -d 1 -p poisson -e 500 -c 0 -i 18 -a 0 -x {0.0 1.0 -1 ------- null}
r -t 0.473900234775229 -s 0 -d 1 -p poisson -e 500 -c 0 -i 17 -a 0 -x {0.0 1.0 17 ------- null}
r -t 0.486059775681544 -s 0 -d 1 -p poisson -e 500 -c 0 -i 18 -a 0 -x {0.0 1.0 18 ------- null}
+ -t 0.499965099841369 -s 0 -d 1 -p poisson -e 500 -c 0 -i 19 -a 0 -x {0.0 1.0 19 ------- null}
- -t 0.499965099841369 -s 0 -d 1 -p poisson -e 500 -c 0 -i 19 -a 0 -x {0.0 1.0 19 ------- null}
h -t 0.499965099841369 -s 0 -d 1 -p poisson -e 500 -c 0 -i 19 -a 0 -x {0.0 1.0 -1 ------- null}
r -t 0.513965099841369 -s 0 -d 1 -p poisson -e 500 -c 0 -i 19 -a 0 -x {0.0 1.0 19 ------- null}
+ -t 0.537772850410737 -s 0 -d 1 -p poisson -e 500 -c 0 -i 20 -a 0 -x {0.0 1.0 20 ------- null}
- -t 0.537772850410737 -s 0 -d 1 -p poisson -e 500 -c 0 -i 20 -a 0 -x {0.0 1.0 20 ------- null}
h -t 0.537772850410737 -s 0 -d 1 -p poisson -e 500 -c 0 -i 20 -a 0 -x {0.0 1.0 -1 ------- null}
+ -t 0.541203190072706 -s 0 -d 1 -p poisson -e 500 -c 0 -i 21 -a 0 -x {0.0 1.0 21 ------- null}
- -t 0.541772850410737 -s 0 -d 1 -p poisson -e 500 -c 0 -i 21 -a 0 -x {0.0 1.0 21 ------- null}
h -t 0.541772850410737 -s 0 -d 1 -p poisson -e 500 -c 0 -i 21 -a 0 -x {0.0 1.0 -1 ------- null}
r -t 0.551772850410737 -s 0 -d 1 -p poisson -e 500 -c 0 -i 20 -a 0 -x {0.0 1.0 20 ------- null}
r -t 0.555772850410737 -s 0 -d 1 -p poisson -e 500 -c 0 -i 21 -a 0 -x {0.0 1.0 21 ------- null}
+ -t 0.558058000942295 -s 0 -d 1 -p poisson -e 500 -c 0 -i 22 -a 0 -x {0.0 1.0 22 ------- null}
- -t 0.558058000942295 -s 0 -d 1 -p poisson -e 500 -c 0 -i 22 -a 0 -x {0.0 1.0 22 ------- null}
h -t 0.558058000942295 -s 0 -d 1 -p poisson -e 500 -c 0 -i 22 -a 0 -x {0.0 1.0 -1 ------- null}
r -t 0.572058000942295 -s 0 -d 1 -p poisson -e 500 -c 0 -i 22 -a 0 -x {0.0 1.0 22 ------- null}
+ -t 0.579729278786171 -s 0 -d 1 -p poisson -e 500 -c 0 -i 23 -a 0 -x {0.0 1.0 23 ------- null}
- -t 0.579729278786171 -s 0 -d 1 -p poisson -e 500 -c 0 -i 23 -a 0 -x {0.0 1.0 23 ------- null}
h -t 0.579729278786171 -s 0 -d 1 -p poisson -e 500 -c 0 -i 23 -a 0 -x {0.0 1.0 -1 ------- null}
r -t 0.593729278786171 -s 0 -d 1 -p poisson -e 500 -c 0 -i 23 -a 0 -x {0.0 1.0 23 ------- null}
+ -t 0.59404622177177 -s 0 -d 1 -p poisson -e 500 -c 0 -i 24 -a 0 -x {0.0 1.0 24 ------- null}
- -t 0.59404622177177 -s 0 -d 1 -p poisson -e 500 -c 0 -i 24 -a 0 -x {0.0 1.0 24 ------- null}
h -t 0.59404622177177 -s 0 -d 1 -p poisson -e 500 -c 0 -i 24 -a 0 -x {0.0 1.0 -1 ------- null}
+ -t 0.604550674904342 -s 0 -d 1 -p poisson -e 500 -c 0 -i 25 -a 0 -x {0.0 1.0 25 ------- null}
- -t 0.604550674904342 -s 0 -d 1 -p poisson -e 500 -c 0 -i 25 -a 0 -x {0.0 1.0 25 ------- null}
h -t 0.604550674904342 -s 0 -d 1 -p poisson -e 500 -c 0 -i 25 -a 0 -x {0.0 1.0 -1 ------- null}
r -t 0.60804622177177 -s 0 -d 1 -p poisson -e 500 -c 0 -i 24 -a 0 -x {0.0 1.0 24 ------- null}
+ -t 0.616763809068453 -s 0 -d 1 -p poisson -e 500 -c 0 -i 26 -a 0 -x {0.0 1.0 26 ------- null}
- -t 0.616763809068453 -s 0 -d 1 -p poisson -e 500 -c 0 -i 26 -a 0 -x {0.0 1.0 26 ------- null}
h -t 0.616763809068453 -s 0 -d 1 -p poisson -e 500 -c 0 -i 26 -a 0 -x {0.0 1.0 -1 ------- null}
r -t 0.618550674904342 -s 0 -d 1 -p poisson -e 500 -c 0 -i 25 -a 0 -x {0.0 1.0 25 ------- null}
+ -t 0.622647425423653 -s 0 -d 1 -p poisson -e 500 -c 0 -i 27 -a 0 -x {0.0 1.0 27 ------- null}
- -t 0.622647425423653 -s 0 -d 1 -p poisson -e 500 -c 0 -i 27 -a 0 -x {0.0 1.0 27 ------- null}
h -t 0.622647425423653 -s 0 -d 1 -p poisson -e 500 -c 0 -i 27 -a 0 -x {0.0 1.0 -1 ------- null}
+ -t 0.625022176772535 -s 0 -d 1 -p poisson -e 500 -c 0 -i 28 -a 0 -x {0.0 1.0 28 ------- null}
- -t 0.626647425423653 -s 0 -d 1 -p poisson -e 500 -c 0 -i 28 -a 0 -x {0.0 1.0 28 ------- null}
h -t 0.626647425423653 -s 0 -d 1 -p poisson -e 500 -c 0 -i 28 -a 0 -x {0.0 1.0 -1 ------- null}
+ -t 0.627815160782458 -s 0 -d 1 -p poisson -e 500 -c 0 -i 29 -a 0 -x {0.0 1.0 29 ------- null}
- -t 0.630647425423653 -s 0 -d 1 -p poisson -e 500 -c 0 -i 29 -a 0 -x {0.0 1.0 29 ------- null}
h -t 0.630647425423653 -s 0 -d 1 -p poisson -e 500 -c 0 -i 29 -a 0 -x {0.0 1.0 -1 ------- null}
r -t 0.630763809068453 -s 0 -d 1 -p poisson -e 500 -c 0 -i 26 -a 0 -x {0.0 1.0 26 ------- null}
r -t 0.636647425423653 -s 0 -d 1 -p poisson -e 500 -c 0 -i 27 -a 0 -x {0.0 1.0 27 ------- null}
r -t 0.640647425423653 -s 0 -d 1 -p poisson -e 500 -c 0 -i 28 -a 0 -x {0.0 1.0 28 ------- null}
r -t 0.644647425423653 -s 0 -d 1 -p poisson -e 500 -c 0 -i 29 -a 0 -x {0.0 1.0 29 ------- null}
+ -t 0.652249134531666 -s 0 -d 1 -p poisson -e 500 -c 0 -i 30 -a 0 -x {0.0 1.0 30 ------- null}
- -t 0.652249134531666 -s 0 -d 1 -p poisson -e 500 -c 0 -i 30 -a 0 -x {0.0 1.0 30 ------- null}
h -t 0.652249134531666 -s 0 -d 1 -p poisson -e 500 -c 0 -i 30 -a 0 -x {0.0 1.0 -1 ------- null}
r -t 0.666249134531666 -s 0 -d 1 -p poisson -e 500 -c 0 -i 30 -a 0 -x {0.0 1.0 30 ------- null}
+ -t 0.675001495615524 -s 0 -d 1 -p poisson -e 500 -c 0 -i 31 -a 0 -x {0.0 1.0 31 ------- null}
- -t 0.675001495615524 -s 0 -d 1 -p poisson -e 500 -c 0 -i 31 -a 0 -x {0.0 1.0 31 ------- null}
h -t 0.675001495615524 -s 0 -d 1 -p poisson -e 500 -c 0 -i 31 -a 0 -x {0.0 1.0 -1 ------- null}
+ -t 0.677580982820589 -s 0 -d 1 -p poisson -e 500 -c 0 -i 32 -a 0 -x {0.0 1.0 32 ------- null}
- -t 0.679001495615524 -s 0 -d 1 -p poisson -e 500 -c 0 -i 32 -a 0 -x {0.0 1.0 32 ------- null}
h -t 0.679001495615524 -s 0 -d 1 -p poisson -e 500 -c 0 -i 32 -a 0 -x {0.0 1.0 -1 ------- null}
+ -t 0.683814082231805 -s 0 -d 1 -p poisson -e 500 -c 0 -i 33 -a 0 -x {0.0 1.0 33 ------- null}
- -t 0.683814082231805 -s 0 -d 1 -p poisson -e 500 -c 0 -i 33 -a 0 -x {0.0 1.0 33 ------- null}
h -t 0.683814082231805 -s 0 -d 1 -p poisson -e 500 -c 0 -i 33 -a 0 -x {0.0 1.0 -1 ------- null}
+ -t 0.688158153405117 -s 0 -d 1 -p poisson -e 500 -c 0 -i 34 -a 0 -x {0.0 1.0 34 ------- null}
- -t 0.688158153405117 -s 0 -d 1 -p poisson -e 500 -c 0 -i 34 -a 0 -x {0.0 1.0 34 ------- null}
h -t 0.688158153405117 -s 0 -d 1 -p poisson -e 500 -c 0 -i 34 -a 0 -x {0.0 1.0 -1 ------- null}
r -t 0.689001495615524 -s 0 -d 1 -p poisson -e 500 -c 0 -i 31 -a 0 -x {0.0 1.0 31 ------- null}
+ -t 0.689756242881791 -s 0 -d 1 -p poisson -e 500 -c 0 -i 35 -a 0 -x {0.0 1.0 35 ------- null}
- -t 0.692158153405117 -s 0 -d 1 -p poisson -e 500 -c 0 -i 35 -a 0 -x {0.0 1.0 35 ------- null}
h -t 0.692158153405117 -s 0 -d 1 -p poisson -e 500 -c 0 -i 35 -a 0 -x {0.0 1.0 -1 ------- null}
r -t 0.693001495615524 -s 0 -d 1 -p poisson -e 500 -c 0 -i 32 -a 0 -x {0.0 1.0 32 ------- null}
r -t 0.697814082231805 -s 0 -d 1 -p poisson -e 500 -c 0 -i 33 -a 0 -x {0.0 1.0 33 ------- null}
r -t 0.702158153405117 -s 0 -d 1 -p poisson -e 500 -c 0 -i 34 -a 0 -x {0.0 1.0 34 ------- null}
+ -t 0.704197640649665 -s 0 -d 1 -p poisson -e 500 -c 0 -i 36 -a 0 -x {0.0 1.0 36 ------- null}
- -t 0.704197640649665 -s 0 -d 1 -p poisson -e 500 -c 0 -i 36 -a 0 -x {0.0 1.0 36 ------- null}
h -t 0.704197640649665 -s 0 -d 1 -p poisson -e 500 -c 0 -i 36 -a 0 -x {0.0 1.0 -1 ------- null}
r -t 0.706158153405117 -s 0 -d 1 -p poisson -e 500 -c 0 -i 35 -a 0 -x {0.0 1.0 35 ------- null}
r -t 0.718197640649665 -s 0 -d 1 -p poisson -e 500 -c 0 -i 36 -a 0 -x {0.0 1.0 36 ------- null}
+ -t 0.739631051994987 -s 0 -d 1 -p poisson -e 500 -c 0 -i 37 -a 0 -x {0.0 1.0 37 ------- null}
- -t 0.739631051994987 -s 0 -d 1 -p poisson -e 500 -c 0 -i 37 -a 0 -x {0.0 1.0 37 ------- null}
h -t 0.739631051994987 -s 0 -d 1 -p poisson -e 500 -c 0 -i 37 -a 0 -x {0.0 1.0 -1 ------- null}
r -t 0.753631051994987 -s 0 -d 1 -p poisson -e 500 -c 0 -i 37 -a 0 -x {0.0 1.0 37 ------- null}
+ -t 0.754124281586095 -s 0 -d 1 -p poisson -e 500 -c 0 -i 38 -a 0 -x {0.0 1.0 38 ------- null}
- -t 0.754124281586095 -s 0 -d 1 -p poisson -e 500 -c 0 -i 38 -a 0 -x {0.0 1.0 38 ------- null}
h -t 0.754124281586095 -s 0 -d 1 -p poisson -e 500 -c 0 -i 38 -a 0 -x {0.0 1.0 -1 ------- null}
r -t 0.768124281586095 -s 0 -d 1 -p poisson -e 500 -c 0 -i 38 -a 0 -x {0.0 1.0 38 ------- null}
+ -t 0.780919408023307 -s 0 -d 1 -p poisson -e 500 -c 0 -i 39 -a 0 -x {0.0 1.0 39 ------- null}
- -t 0.780919408023307 -s 0 -d 1 -p poisson -e 500 -c 0 -i 39 -a 0 -x {0.0 1.0 39 ------- null}
h -t 0.780919408023307 -s 0 -d 1 -p poisson -e 500 -c 0 -i 39 -a 0 -x {0.0 1.0 -1 ------- null}
+ -t 0.782829973938072 -s 0 -d 1 -p poisson -e 500 -c 0 -i 40 -a 0 -x {0.0 1.0 40 ------- null}
+ -t 0.783713696684448 -s 0 -d 1 -p poisson -e 500 -c 0 -i 41 -a 0 -x {0.0 1.0 41 ------- null}
- -t 0.784919408023307 -s 0 -d 1 -p poisson -e 500 -c 0 -i 40 -a 0 -x {0.0 1.0 40 ------- null}
h -t 0.784919408023307 -s 0 -d 1 -p poisson -e 500 -c 0 -i 40 -a 0 -x {0.0 1.0 -1 ------- null}
+ -t 0.785554025575839 -s 0 -d 1 -p poisson -e 500 -c 0 -i 42 -a 0 -x {0.0 1.0 42 ------- null}
- -t 0.788919408023307 -s 0 -d 1 -p poisson -e 500 -c 0 -i 41 -a 0 -x {0.0 1.0 41 ------- null}
h -t 0.788919408023307 -s 0 -d 1 -p poisson -e 500 -c 0 -i 41 -a 0 -x {0.0 1.0 -1 ------- null}
- -t 0.792919408023307 -s 0 -d 1 -p poisson -e 500 -c 0 -i 42 -a 0 -x {0.0 1.0 42 ------- null}
h -t 0.792919408023307 -s 0 -d 1 -p poisson -e 500 -c 0 -i 42 -a 0 -x {0.0 1.0 -1 ------- null}
r -t 0.794919408023307 -s 0 -d 1 -p poisson -e 500 -c 0 -i 39 -a 0 -x {0.0 1.0 39 ------- null}
r -t 0.798919408023307 -s 0 -d 1 -p poisson -e 500 -c 0 -i 40 -a 0 -x {0.0 1.0 40 ------- null}
r -t 0.802919408023307 -s 0 -d 1 -p poisson -e 500 -c 0 -i 41 -a 0 -x {0.0 1.0 41 ------- null}
r -t 0.806919408023307 -s 0 -d 1 -p poisson -e 500 -c 0 -i 42 -a 0 -x {0.0 1.0 42 ------- null}
+ -t 0.82057765504463 -s 0 -d 1 -p poisson -e 500 -c 0 -i 43 -a 0 -x {0.0 1.0 43 ------- null}
- -t 0.82057765504463 -s 0 -d 1 -p poisson -e 500 -c 0 -i 43 -a 0 -x {0.0 1.0 43 ------- null}
h -t 0.82057765504463 -s 0 -d 1 -p poisson -e 500 -c 0 -i 43 -a 0 -x {0.0 1.0 -1 ------- null}
r -t 0.83457765504463 -s 0 -d 1 -p poisson -e 500 -c 0 -i 43 -a 0 -x {0.0 1.0 43 ------- null}
+ -t 0.866023965421959 -s 0 -d 1 -p poisson -e 500 -c 0 -i 44 -a 0 -x {0.0 1.0 44 ------- null}
- -t 0.866023965421959 -s 0 -d 1 -p poisson -e 500 -c 0 -i 44 -a 0 -x {0.0 1.0 44 ------- null}
h -t 0.866023965421959 -s 0 -d 1 -p poisson -e 500 -c 0 -i 44 -a 0 -x {0.0 1.0 -1 ------- null}
r -t 0.880023965421959 -s 0 -d 1 -p poisson -e 500 -c 0 -i 44 -a 0 -x {0.0 1.0 44 ------- null}
+ -t 0.938462963563374 -s 0 -d 1 -p poisson -e 500 -c 0 -i 45 -a 0 -x {0.0 1.0 45 ------- null}
- -t 0.938462963563374 -s 0 -d 1 -p poisson -e 500 -c 0 -i 45 -a 0 -x {0.0 1.0 45 ------- null}
h -t 0.938462963563374 -s 0 -d 1 -p poisson -e 500 -c 0 -i 45 -a 0 -x {0.0 1.0 -1 ------- null}
+ -t 0.946769329077025 -s 0 -d 1 -p poisson -e 500 -c 0 -i 46 -a 0 -x {0.0 1.0 46 ------- null}
- -t 0.946769329077025 -s 0 -d 1 -p poisson -e 500 -c 0 -i 46 -a 0 -x {0.0 1.0 46 ------- null}
h -t 0.946769329077025 -s 0 -d 1 -p poisson -e 500 -c 0 -i 46 -a 0 -x {0.0 1.0 -1 ------- null}
r -t 0.952462963563374 -s 0 -d 1 -p poisson -e 500 -c 0 -i 45 -a 0 -x {0.0 1.0 45 ------- null}
r -t 0.960769329077026 -s 0 -d 1 -p poisson -e 500 -c 0 -i 46 -a 0 -x {0.0 1.0 46 ------- null}
+ -t 0.964235702169716 -s 0 -d 1 -p poisson -e 500 -c 0 -i 47 -a 0 -x {0.0 1.0 47 ------- null}
- -t 0.964235702169716 -s 0 -d 1 -p poisson -e 500 -c 0 -i 47 -a 0 -x {0.0 1.0 47 ------- null}
h -t 0.964235702169716 -s 0 -d 1 -p poisson -e 500 -c 0 -i 47 -a 0 -x {0.0 1.0 -1 ------- null}
r -t 0.978235702169716 -s 0 -d 1 -p poisson -e 500 -c 0 -i 47 -a 0 -x {0.0 1.0 47 ------- null}
+ -t 0.99775137973636 -s 0 -d 1 -p poisson -e 500 -c 0 -i 48 -a 0 -x {0.0 1.0 48 ------- null}
- -t 0.99775137973636 -s 0 -d 1 -p poisson -e 500 -c 0 -i 48 -a 0 -x {0.0 1.0 48 ------- null}
h -t 0.99775137973636 -s 0 -d 1 -p poisson -e 500 -c 0 -i 48 -a 0 -x {0.0 1.0 -1 ------- null}
+ -t 1.00419191685091 -s 0 -d 1 -p poisson -e 500 -c 0 -i 49 -a 0 -x {0.0 1.0 49 ------- null}
- -t 1.00419191685091 -s 0 -d 1 -p poisson -e 500 -c 0 -i 49 -a 0 -x {0.0 1.0 49 ------- null}
h -t 1.00419191685091 -s 0 -d 1 -p poisson -e 500 -c 0 -i 49 -a 0 -x {0.0 1.0 -1 ------- null}
r -t 1.01175137973636 -s 0 -d 1 -p poisson -e 500 -c 0 -i 48 -a 0 -x {0.0 1.0 48 ------- null}
r -t 1.01819191685091 -s 0 -d 1 -p poisson -e 500 -c 0 -i 49 -a 0 -x {0.0 1.0 49 ------- null}
+ -t 1.02593117373392 -s 0 -d 1 -p poisson -e 500 -c 0 -i 50 -a 0 -x {0.0 1.0 50 ------- null}
- -t 1.02593117373392 -s 0 -d 1 -p poisson -e 500 -c 0 -i 50 -a 0 -x {0.0 1.0 50 ------- null}
h -t 1.02593117373392 -s 0 -d 1 -p poisson -e 500 -c 0 -i 50 -a 0 -x {0.0 1.0 -1 ------- null}
+ -t 1.03166832786524 -s 0 -d 1 -p poisson -e 500 -c 0 -i 51 -a 0 -x {0.0 1.0 51 ------- null}
- -t 1.03166832786524 -s 0 -d 1 -p poisson -e 500 -c 0 -i 51 -a 0 -x {0.0 1.0 51 ------- null}
h -t 1.03166832786524 -s 0 -d 1 -p poisson -e 500 -c 0 -i 51 -a 0 -x {0.0 1.0 -1 ------- null}
r -t 1.03993117373392 -s 0 -d 1 -p poisson -e 500 -c 0 -i 50 -a 0 -x {0.0 1.0 50 ------- null}
+ -t 1.04138506712567 -s 0 -d 1 -p poisson -e 500 -c 0 -i 52 -a 0 -x {0.0 1.0 52 ------- null}
- -t 1.04138506712567 -s 0 -d 1 -p poisson -e 500 -c 0 -i 52 -a 0 -x {0.0 1.0 52 ------- null}
h -t 1.04138506712567 -s 0 -d 1 -p poisson -e 500 -c 0 -i 52 -a 0 -x {0.0 1.0 -1 ------- null}
+ -t 1.04349132284314 -s 0 -d 1 -p poisson -e 500 -c 0 -i 53 -a 0 -x {0.0 1.0 53 ------- null}
- -t 1.04538506712567 -s 0 -d 1 -p poisson -e 500 -c 0 -i 53 -a 0 -x {0.0 1.0 53 ------- null}
h -t 1.04538506712567 -s 0 -d 1 -p poisson -e 500 -c 0 -i 53 -a 0 -x {0.0 1.0 -1 ------- null}
r -t 1.04566832786524 -s 0 -d 1 -p poisson -e 500 -c 0 -i 51 -a 0 -x {0.0 1.0 51 ------- null}
r -t 1.05538506712567 -s 0 -d 1 -p poisson -e 500 -c 0 -i 52 -a 0 -x {0.0 1.0 52 ------- null}
r -t 1.05938506712567 -s 0 -d 1 -p poisson -e 500 -c 0 -i 53 -a 0 -x {0.0 1.0 53 ------- null}
+ -t 1.06493263795555 -s 0 -d 1 -p poisson -e 500 -c 0 -i 54 -a 0 -x {0.0 1.0 54 ------- null}
- -t 1.06493263795555 -s 0 -d 1 -p poisson -e 500 -c 0 -i 54 -a 0 -x {0.0 1.0 54 ------- null}
h -t 1.06493263795555 -s 0 -d 1 -p poisson -e 500 -c 0 -i 54 -a 0 -x {0.0 1.0 -1 ------- null}
+ -t 1.07435785529092 -s 0 -d 1 -p poisson -e 500 -c 0 -i 55 -a 0 -x {0.0 1.0 55 ------- null}
- -t 1.07435785529092 -s 0 -d 1 -p poisson -e 500 -c 0 -i 55 -a 0 -x {0.0 1.0 55 ------- null}
h -t 1.07435785529092 -s 0 -d 1 -p poisson -e 500 -c 0 -i 55 -a 0 -x {0.0 1.0 -1 ------- null}
r -t 1.07893263795555 -s 0 -d 1 -p poisson -e 500 -c 0 -i 54 -a 0 -x {0.0 1.0 54 ------- null}
+ -t 1.08802265994418 -s 0 -d 1 -p poisson -e 500 -c 0 -i 56 -a 0 -x {0.0 1.0 56 ------- null}
- -t 1.08802265994418 -s 0 -d 1 -p poisson -e 500 -c 0 -i 56 -a 0 -x {0.0 1.0 56 ------- null}
h -t 1.08802265994418 -s 0 -d 1 -p poisson -e 500 -c 0 -i 56 -a 0 -x {0.0 1.0 -1 ------- null}
r -t 1.08835785529092 -s 0 -d 1 -p poisson -e 500 -c 0 -i 55 -a 0 -x {0.0 1.0 55 ------- null}
r -t 1.10202265994418 -s 0 -d 1 -p poisson -e 500 -c 0 -i 56 -a 0 -x {0.0 1.0 56 ------- null}
+ -t 1.14548636473706 -s 0 -d 1 -p poisson -e 500 -c 0 -i 57 -a 0 -x {0.0 1.0 57 ------- null}
- -t 1.14548636473706 -s 0 -d 1 -p poisson -e 500 -c 0 -i 57 -a 0 -x {0.0 1.0 57 ------- null}
h -t 1.14548636473706 -s 0 -d 1 -p poisson -e 500 -c 0 -i 57 -a 0 -x {0.0 1.0 -1 ------- null}
r -t 1.15948636473706 -s 0 -d 1 -p poisson -e 500 -c 0 -i 57 -a 0 -x {0.0 1.0 57 ------- null}
+ -t 1.16335558331443 -s 0 -d 1 -p poisson -e 500 -c 0 -i 58 -a 0 -x {0.0 1.0 58 ------- null}
- -t 1.16335558331443 -s 0 -d 1 -p poisson -e 500 -c 0 -i 58 -a 0 -x {0.0 1.0 58 ------- null}
h -t 1.16335558331443 -s 0 -d 1 -p poisson -e 500 -c 0 -i 58 -a 0 -x {0.0 1.0 -1 ------- null}
r -t 1.17735558331443 -s 0 -d 1 -p poisson -e 500 -c 0 -i 58 -a 0 -x {0.0 1.0 58 ------- null}
+ -t 1.19024930119897 -s 0 -d 1 -p poisson -e 500 -c 0 -i 59 -a 0 -x {0.0 1.0 59 ------- null}
- -t 1.19024930119897 -s 0 -d 1 -p poisson -e 500 -c 0 -i 59 -a 0 -x {0.0 1.0 59 ------- null}
h -t 1.19024930119897 -s 0 -d 1 -p poisson -e 500 -c 0 -i 59 -a 0 -x {0.0 1.0 -1 ------- null}
+ -t 1.19412270905808 -s 0 -d 1 -p poisson -e 500 -c 0 -i 60 -a 0 -x {0.0 1.0 60 ------- null}
- -t 1.19424930119897 -s 0 -d 1 -p poisson -e 500 -c 0 -i 60 -a 0 -x {0.0 1.0 60 ------- null}
h -t 1.19424930119897 -s 0 -d 1 -p poisson -e 500 -c 0 -i 60 -a 0 -x {0.0 1.0 -1 ------- null}
+ -t 1.19499711390014 -s 0 -d 1 -p poisson -e 500 -c 0 -i 61 -a 0 -x {0.0 1.0 61 ------- null}
- -t 1.19824930119897 -s 0 -d 1 -p poisson -e 500 -c 0 -i 61 -a 0 -x {0.0 1.0 61 ------- null}
h -t 1.19824930119897 -s 0 -d 1 -p poisson -e 500 -c 0 -i 61 -a 0 -x {0.0 1.0 -1 ------- null}
+ -t 1.19912303263472 -s 0 -d 1 -p poisson -e 500 -c 0 -i 62 -a 0 -x {0.0 1.0 62 ------- null}
- -t 1.20224930119897 -s 0 -d 1 -p poisson -e 500 -c 0 -i 62 -a 0 -x {0.0 1.0 62 ------- null}
h -t 1.20224930119897 -s 0 -d 1 -p poisson -e 500 -c 0 -i 62 -a 0 -x {0.0 1.0 -1 ------- null}
r -t 1.20424930119897 -s 0 -d 1 -p poisson -e 500 -c 0 -i 59 -a 0 -x {0.0 1.0 59 ------- null}
r -t 1.20824930119897 -s 0 -d 1 -p poisson -e 500 -c 0 -i 60 -a 0 -x {0.0 1.0 60 ------- null}
r -t 1.21224930119897 -s 0 -d 1 -p poisson -e 500 -c 0 -i 61 -a 0 -x {0.0 1.0 61 ------- null}
r -t 1.21624930119897 -s 0 -d 1 -p poisson -e 500 -c 0 -i 62 -a 0 -x {0.0 1.0 62 ------- null}
+ -t 1.22434418781535 -s 0 -d 1 -p poisson -e 500 -c 0 -i 63 -a 0 -x {0.0 1.0 63 ------- null}
- -t 1.22434418781535 -s 0 -d 1 -p poisson -e 500 -c 0 -i 63 -a 0 -x {0.0 1.0 63 ------- null}
h -t 1.22434418781535 -s 0 -d 1 -p poisson -e 500 -c 0 -i 63 -a 0 -x {0.0 1.0 -1 ------- null}
+ -t 1.2301671271514 -s 0 -d 1 -p poisson -e 500 -c 0 -i 64 -a 0 -x {0.0 1.0 64 ------- null}
- -t 1.2301671271514 -s 0 -d 1 -p poisson -e 500 -c 0 -i 64 -a 0 -x {0.0 1.0 64 ------- null}
h -t 1.2301671271514 -s 0 -d 1 -p poisson -e 500 -c 0 -i 64 -a 0 -x {0.0 1.0 -1 ------- null}
r -t 1.23834418781535 -s 0 -d 1 -p poisson -e 500 -c 0 -i 63 -a 0 -x {0.0 1.0 63 ------- null}
r -t 1.2441671271514 -s 0 -d 1 -p poisson -e 500 -c 0 -i 64 -a 0 -x {0.0 1.0 64 ------- null}
+ -t 1.25771738349969 -s 0 -d 1 -p poisson -e 500 -c 0 -i 65 -a 0 -x {0.0 1.0 65 ------- null}
- -t 1.25771738349969 -s 0 -d 1 -p poisson -e 500 -c 0 -i 65 -a 0 -x {0.0 1.0 65 ------- null}
h -t 1.25771738349969 -s 0 -d 1 -p poisson -e 500 -c 0 -i 65 -a 0 -x {0.0 1.0 -1 ------- null}
+ -t 1.25810595674575 -s 0 -d 1 -p poisson -e 500 -c 0 -i 66 -a 0 -x {0.0 1.0 66 ------- null}
- -t 1.26171738349969 -s 0 -d 1 -p poisson -e 500 -c 0 -i 66 -a 0 -x {0.0 1.0 66 ------- null}
h -t 1.26171738349969 -s 0 -d 1 -p poisson -e 500 -c 0 -i 66 -a 0 -x {0.0 1.0 -1 ------- null}
r -t 1.27171738349969 -s 0 -d 1 -p poisson -e 500 -c 0 -i 65 -a 0 -x {0.0 1.0 65 ------- null}
r -t 1.27571738349969 -s 0 -d 1 -p poisson -e 500 -c 0 -i 66 -a 0 -x {0.0 1.0 66 ------- null}
+ -t 1.29639365736798 -s 0 -d 1 -p poisson -e 500 -c 0 -i 67 -a 0 -x {0.0 1.0 67 ------- null}
- -t 1.29639365736798 -s 0 -d 1 -p poisson -e 500 -c 0 -i 67 -a 0 -x {0.0 1.0 67 ------- null}
h -t 1.29639365736798 -s 0 -d 1 -p poisson -e 500 -c 0 -i 67 -a 0 -x {0.0 1.0 -1 ------- null}
+ -t 1.30775113522099 -s 0 -d 1 -p poisson -e 500 -c 0 -i 68 -a 0 -x {0.0 1.0 68 ------- null}
- -t 1.30775113522099 -s 0 -d 1 -p poisson -e 500 -c 0 -i 68 -a 0 -x {0.0 1.0 68 ------- null}
h -t 1.30775113522099 -s 0 -d 1 -p poisson -e 500 -c 0 -i 68 -a 0 -x {0.0 1.0 -1 ------- null}
r -t 1.31039365736798 -s 0 -d 1 -p poisson -e 500 -c 0 -i 67 -a 0 -x {0.0 1.0 67 ------- null}
r -t 1.32175113522099 -s 0 -d 1 -p poisson -e 500 -c 0 -i 68 -a 0 -x {0.0 1.0 68 ------- null}
+ -t 1.35564021888281 -s 0 -d 1 -p poisson -e 500 -c 0 -i 69 -a 0 -x {0.0 1.0 69 ------- null}
- -t 1.35564021888281 -s 0 -d 1 -p poisson -e 500 -c 0 -i 69 -a 0 -x {0.0 1.0 69 ------- null}
h -t 1.35564021888281 -s 0 -d 1 -p poisson -e 500 -c 0 -i 69 -a 0 -x {0.0 1.0 -1 ------- null}
+ -t 1.35795868025896 -s 0 -d 1 -p poisson -e 500 -c 0 -i 70 -a 0 -x {0.0 1.0 70 ------- null}
- -t 1.35964021888281 -s 0 -d 1 -p poisson -e 500 -c 0 -i 70 -a 0 -x {0.0 1.0 70 ------- null}
h -t 1.35964021888281 -s 0 -d 1 -p poisson -e 500 -c 0 -i 70 -a 0 -x {0.0 1.0 -1 ------- null}
+ -t 1.36802946756979 -s 0 -d 1 -p poisson -e 500 -c 0 -i 71 -a 0 -x {0.0 1.0 71 ------- null}
- -t 1.36802946756979 -s 0 -d 1 -p poisson -e 500 -c 0 -i 71 -a 0 -x {0.0 1.0 71 ------- null}
h -t 1.36802946756979 -s 0 -d 1 -p poisson -e 500 -c 0 -i 71 -a 0 -x {0.0 1.0 -1 ------- null}
r -t 1.36964021888281 -s 0 -d 1 -p poisson -e 500 -c 0 -i 69 -a 0 -x {0.0 1.0 69 ------- null}
+ -t 1.37295364047306 -s 0 -d 1 -p poisson -e 500 -c 0 -i 72 -a 0 -x {0.0 1.0 72 ------- null}
- -t 1.37295364047306 -s 0 -d 1 -p poisson -e 500 -c 0 -i 72 -a 0 -x {0.0 1.0 72 ------- null}
h -t 1.37295364047306 -s 0 -d 1 -p poisson -e 500 -c 0 -i 72 -a 0 -x {0.0 1.0 -1 ------- null}
r -t 1.37364021888281 -s 0 -d 1 -p poisson -e 500 -c 0 -i 70 -a 0 -x {0.0 1.0 70 ------- null}
r -t 1.38202946756979 -s 0 -d 1 -p poisson -e 500 -c 0 -i 71 -a 0 -x {0.0 1.0 71 ------- null}
+ -t 1.38678723880686 -s 0 -d 1 -p poisson -e 500 -c 0 -i 73 -a 0 -x {0.0 1.0 73 ------- null}
- -t 1.38678723880686 -s 0 -d 1 -p poisson -e 500 -c 0 -i 73 -a 0 -x {0.0 1.0 73 ------- null}
h -t 1.38678723880686 -s 0 -d 1 -p poisson -e 500 -c 0 -i 73 -a 0 -x {0.0 1.0 -1 ------- null}
r -t 1.38695364047306 -s 0 -d 1 -p poisson -e 500 -c 0 -i 72 -a 0 -x {0.0 1.0 72 ------- null}
r -t 1.40078723880686 -s 0 -d 1 -p poisson -e 500 -c 0 -i 73 -a 0 -x {0.0 1.0 73 ------- null}
+ -t 1.42563758542895 -s 0 -d 1 -p poisson -e 500 -c 0 -i 74 -a 0 -x {0.0 1.0 74 ------- null}
- -t 1.42563758542895 -s 0 -d 1 -p poisson -e 500 -c 0 -i 74 -a 0 -x {0.0 1.0 74 ------- null}
h -t 1.42563758542895 -s 0 -d 1 -p poisson -e 500 -c 0 -i 74 -a 0 -x {0.0 1.0 -1 ------- null}
+ -t 1.42892244052474 -s 0 -d 1 -p poisson -e 500 -c 0 -i 75 -a 0 -x {0.0 1.0 75 ------- null}
- -t 1.42963758542895 -s 0 -d 1 -p poisson -e 500 -c 0 -i 75 -a 0 -x {0.0 1.0 75 ------- null}
h -t 1.42963758542895 -s 0 -d 1 -p poisson -e 500 -c 0 -i 75 -a 0 -x {0.0 1.0 -1 ------- null}
+ -t 1.43055766393254 -s 0 -d 1 -p poisson -e 500 -c 0 -i 76 -a 0 -x {0.0 1.0 76 ------- null}
- -t 1.43363758542895 -s 0 -d 1 -p poisson -e 500 -c 0 -i 76 -a 0 -x {0.0 1.0 76 ------- null}
h -t 1.43363758542895 -s 0 -d 1 -p poisson -e 500 -c 0 -i 76 -a 0 -x {0.0 1.0 -1 ------- null}
+ -t 1.43563601359283 -s 0 -d 1 -p poisson -e 500 -c 0 -i 77 -a 0 -x {0.0 1.0 77 ------- null}
- -t 1.43763758542895 -s 0 -d 1 -p poisson -e 500 -c 0 -i 77 -a 0 -x {0.0 1.0 77 ------- null}
h -t 1.43763758542895 -s 0 -d 1 -p poisson -e 500 -c 0 -i 77 -a 0 -x {0.0 1.0 -1 ------- null}
+ -t 1.43777898476771 -s 0 -d 1 -p poisson -e 500 -c 0 -i 78 -a 0 -x {0.0 1.0 78 ------- null}
r -t 1.43963758542895 -s 0 -d 1 -p poisson -e 500 -c 0 -i 74 -a 0 -x {0.0 1.0 74 ------- null}
- -t 1.44163758542895 -s 0 -d 1 -p poisson -e 500 -c 0 -i 78 -a 0 -x {0.0 1.0 78 ------- null}
h -t 1.44163758542895 -s 0 -d 1 -p poisson -e 500 -c 0 -i 78 -a 0 -x {0.0 1.0 -1 ------- null}