+ 0 0 1 poisson 500 ------- 0 0.0 1.0 0 0
- 0 0 1 poisson 500 ------- 0 0.0 1.0 0 0
r 0.014 0 1 poisson 500 ------- 0 0.0 1.0 0 0
+ 0.033633 0 1 poisson 500 ------- 0 0.0 1.0 1 1
- 0.033633 0 1 poisson 500 ------- 0 0.0 1.0 1 1
+ 0.036105 0 1 poisson 500 ------- 0 0.0 1.0 2 2
- 0.037633 0 1 poisson 500 ------- 0 0.0 1.0 2 2
r 0.047633 0 1 poisson 500 ------- 0 0.0 1.0 1 1
r 0.051633 0 1 poisson 500 ------- 0 0.0 1.0 2 2
+ 0.054018 0 1 poisson 500 ------- 0 0.0 1.0 3 3
- 0.054018 0 1 poisson 500 ------- 0 0.0 1.0 3 3
+ 0.064245 0 1 poisson 500 ------- 0 0.0 1.0 4 4
- 0.064245 0 1 poisson 500 ------- 0 0.0 1.0 4 4
+ 0.067691 0 1 poisson 500 ------- 0 0.0 1.0 5 5
r 0.068018 0 1 poisson 500 ------- 0 0.0 1.0 3 3
- 0.068245 0 1 poisson 500 ------- 0 0.0 1.0 5 5
+ 0.068635 0 1 poisson 500 ------- 0 0.0 1.0 6 6
- 0.072245 0 1 poisson 500 ------- 0 0.0 1.0 6 6
+ 0.073526 0 1 poisson 500 ------- 0 0.0 1.0 7 7
+ 0.07438 0 1 poisson 500 ------- 0 0.0 1.0 8 8
- 0.076245 0 1 poisson 500 ------- 0 0.0 1.0 7 7
r 0.078245 0 1 poisson 500 ------- 0 0.0 1.0 4 4
- 0.080245 0 1 poisson 500 ------- 0 0.0 1.0 8 8
+ 0.080484 0 1 poisson 500 ------- 0 0.0 1.0 9 9
r 0.082245 0 1 poisson 500 ------- 0 0.0 1.0 5 5
+ 0.082371 0 1 poisson 500 ------- 0 0.0 1.0 10 10
- 0.084245 0 1 poisson 500 ------- 0 0.0 1.0 9 9
r 0.086245 0 1 poisson 500 ------- 0 0.0 1.0 6 6
+ 0.087315 0 1 poisson 500 ------- 0 0.0 1.0 11 11
+ 0.088067 0 1 poisson 500 ------- 0 0.0 1.0 12 12
- 0.088245 0 1 poisson 500 ------- 0 0.0 1.0 10 10
r 0.090245 0 1 poisson 500 ------- 0 0.0 1.0 7 7
- 0.092245 0 1 poisson 500 ------- 0 0.0 1.0 11 11
r 0.094245 0 1 poisson 500 ------- 0 0.0 1.0 8 8
+ 0.095676 0 1 poisson 500 ------- 0 0.0 1.0 13 13
- 0.096245 0 1 poisson 500 ------- 0 0.0 1.0 12 12
r 0.098245 0 1 poisson 500 ------- 0 0.0 1.0 9 9
- 0.100245 0 1 poisson 500 ------- 0 0.0 1.0 13 13
r 0.102245 0 1 poisson 500 ------- 0 0.0 1.0 10 10
r 0.106245 0 1 poisson 500 ------- 0 0.0 1.0 11 11
+ 0.108945 0 1 poisson 500 ------- 0 0.0 1.0 14 14
- 0.108945 0 1 poisson 500 ------- 0 0.0 1.0 14 14
r 0.110245 0 1 poisson 500 ------- 0 0.0 1.0 12 12
+ 0.110823 0 1 poisson 500 ------- 0 0.0 1.0 15 15
- 0.112945 0 1 poisson 500 ------- 0 0.0 1.0 15 15
r 0.114245 0 1 poisson 500 ------- 0 0.0 1.0 13 13
+ 0.119974 0 1 poisson 500 ------- 0 0.0 1.0 16 16
- 0.119974 0 1 poisson 500 ------- 0 0.0 1.0 16 16
+ 0.12061 0 1 poisson 500 ------- 0 0.0 1.0 17 17
r 0.122945 0 1 poisson 500 ------- 0 0.0 1.0 14 14
- 0.123974 0 1 poisson 500 ------- 0 0.0 1.0 17 17
+ 0.124226 0 1 poisson 500 ------- 0 0.0 1.0 18 18
r 0.126945 0 1 poisson 500 ------- 0 0.0 1.0 15 15
- 0.127974 0 1 poisson 500 ------- 0 0.0 1.0 18 18
+ 0.13157 0 1 poisson 500 ------- 0 0.0 1.0 19 19
- 0.131974 0 1 poisson 500 ------- 0 0.0 1.0 19 19
r 0.133974 0 1 poisson 500 ------- 0 0.0 1.0 16 16
r 0.137974 0 1 poisson 500 ------- 0 0.0 1.0 17 17
+ 0.141519 0 1 poisson 500 ------- 0 0.0 1.0 20 20
- 0.141519 0 1 poisson 500 ------- 0 0.0 1.0 20 20
r 0.141974 0 1 poisson 500 ------- 0 0.0 1.0 18 18
+ 0.142422 0 1 poisson 500 ------- 0 0.0 1.0 21 21
- 0.145519 0 1 poisson 500 ------- 0 0.0 1.0 21 21
r 0.145974 0 1 poisson 500 ------- 0 0.0 1.0 19 19
+ 0.146857 0 1 poisson 500 ------- 0 0.0 1.0 22 22
- 0.149519 0 1 poisson 500 ------- 0 0.0 1.0 22 22
+ 0.15256 0 1 poisson 500 ------- 0 0.0 1.0 23 23
- 0.153519 0 1 poisson 500 ------- 0 0.0 1.0 23 23
r 0.155519 0 1 poisson 500 ------- 0 0.0 1.0 20 20
+ 0.156328 0 1 poisson 500 ------- 0 0.0 1.0 24 24
- 0.157519 0 1 poisson 500 ------- 0 0.0 1.0 24 24
+ 0.159092 0 1 poisson 500 ------- 0 0.0 1.0 25 25
r 0.159519 0 1 poisson 500 ------- 0 0.0 1.0 21 21
- 0.161519 0 1 poisson 500 ------- 0 0.0 1.0 25 25
+ 0.162306 0 1 poisson 500 ------- 0 0.0 1.0 26 26
r 0.163519 0 1 poisson 500 ------- 0 0.0 1.0 22 22
+ 0.163855 0 1 poisson 500 ------- 0 0.0 1.0 27 27
+ 0.16448 0 1 poisson 500 ------- 0 0.0 1.0 28 28
+ 0.165215 0 1 poisson 500 ------- 0 0.0 1.0 29 29
- 0.165519 0 1 poisson 500 ------- 0 0.0 1.0 26 26
r 0.167519 0 1 poisson 500 ------- 0 0.0 1.0 23 23
- 0.169519 0 1 poisson 500 ------- 0 0.0 1.0 27 27
r 0.171519 0 1 poisson 500 ------- 0 0.0 1.0 24 24
+ 0.171645 0 1 poisson 500 ------- 0 0.0 1.0 30 30
- 0.173519 0 1 poisson 500 ------- 0 0.0 1.0 28 28
r 0.175519 0 1 poisson 500 ------- 0 0.0 1.0 25 25
- 0.177519 0 1 poisson 500 ------- 0 0.0 1.0 29 29
+ 0.177632 0 1 poisson 500 ------- 0 0.0 1.0 31 31
+ 0.178311 0 1 poisson 500 ------- 0 0.0 1.0 32 32
r 0.179519 0 1 poisson 500 ------- 0 0.0 1.0 26 26
+ 0.179951 0 1 poisson 500 ------- 0 0.0 1.0 33 33
+ 0.181094 0 1 poisson 500 ------- 0 0.0 1.0 34 34
+ 0.181515 0 1 poisson 500 ------- 0 0.0 1.0 35 35
- 0.181519 0 1 poisson 500 ------- 0 0.0 1.0 30 30
r 0.183519 0 1 poisson 500 ------- 0 0.0 1.0 27 27
+ 0.185315 0 1 poisson 500 ------- 0 0.0 1.0 36 36
- 0.185519 0 1 poisson 500 ------- 0 0.0 1.0 31 31
r 0.187519 0 1 poisson 500 ------- 0 0.0 1.0 28 28
- 0.189519 0 1 poisson 500 ------- 0 0.0 1.0 32 32
r 0.191519 0 1 poisson 500 ------- 0 0.0 1.0 29 29
- 0.193519 0 1 poisson 500 ------- 0 0.0 1.0 33 33
+ 0.19464 0 1 poisson 500 ------- 0 0.0 1.0 37 37
r 0.195519 0 1 poisson 500 ------- 0 0.0 1.0 30 30
- 0.197519 0 1 poisson 500 ------- 0 0.0 1.0 34 34
+ 0.198454 0 1 poisson 500 ------- 0 0.0 1.0 38 38
r 0.199519 0 1 poisson 500 ------- 0 0.0 1.0 31 31
- 0.201519 0 1 poisson 500 ------- 0 0.0 1.0 35 35
r 0.203519 0 1 poisson 500 ------- 0 0.0 1.0 32 32
+ 0.205505 0 1 poisson 500 ------- 0 0.0 1.0 39 39
- 0.205519 0 1 poisson 500 ------- 0 0.0 1.0 36 36
+ 0.206008 0 1 poisson 500 ------- 0 0.0 1.0 40 40
+ 0.20624 0 1 poisson 500 ------- 0 0.0 1.0 41 41
+ 0.206725 0 1 poisson 500 ------- 0 0.0 1.0 42 42
r 0.207519 0 1 poisson 500 ------- 0 0.0 1.0 33 33
- 0.209519 0 1 poisson 500 ------- 0 0.0 1.0 37 37
r 0.211519 0 1 poisson 500 ------- 0 0.0 1.0 34 34
- 0.213519 0 1 poisson 500 ------- 0 0.0 1.0 38 38
r 0.215519 0 1 poisson 500 ------- 0 0.0 1.0 35 35
+ 0.215941 0 1 poisson 500 ------- 0 0.0 1.0 43 43
- 0.217519 0 1 poisson 500 ------- 0 0.0 1.0 39 39
r 0.219519 0 1 poisson 500 ------- 0 0.0 1.0 36 36
- 0.221519 0 1 poisson 500 ------- 0 0.0 1.0 40 40
r 0.223519 0 1 poisson 500 ------- 0 0.0 1.0 37 37
- 0.225519 0 1 poisson 500 ------- 0 0.0 1.0 41 41
r 0.227519 0 1 poisson 500 ------- 0 0.0 1.0 38 38
+ 0.227901 0 1 poisson 500 ------- 0 0.0 1.0 44 44
- 0.229519 0 1 poisson 500 ------- 0 0.0 1.0 42 42
r 0.231519 0 1 poisson 500 ------- 0 0.0 1.0 39 39
- 0.233519 0 1 poisson 500 ------- 0 0.0 1.0 43 43
r 0.235519 0 1 poisson 500 ------- 0 0.0 1.0 40 40
- 0.237519 0 1 poisson 500 ------- 0 0.0 1.0 44 44
r 0.239519 0 1 poisson 500 ------- 0 0.0 1.0 41 41
r 0.243519 0 1 poisson 500 ------- 0 0.0 1.0 42 42
+ 0.246964 0 1 poisson 500 ------- 0 0.0 1.0 45 45
- 0.246964 0 1 poisson 500 ------- 0 0.0 1.0 45 45
r 0.247519 0 1 poisson 500 ------- 0 0.0 1.0 43 43
+ 0.24915 0 1 poisson 500 ------- 0 0.0 1.0 46 46
- 0.250964 0 1 poisson 500 ------- 0 0.0 1.0 46 46
r 0.251519 0 1 poisson 500 ------- 0 0.0 1.0 44 44
+ 0.253746 0 1 poisson 500 ------- 0 0.0 1.0 47 47
- 0.254964 0 1 poisson 500 ------- 0 0.0 1.0 47 47
r 0.260964 0 1 poisson 500 ------- 0 0.0 1.0 45 45
+ 0.262566 0 1 poisson 500 ------- 0 0.0 1.0 48 48
- 0.262566 0 1 poisson 500 ------- 0 0.0 1.0 48 48
+ 0.264261 0 1 poisson 500 ------- 0 0.0 1.0 49 49
r 0.264964 0 1 poisson 500 ------- 0 0.0 1.0 46 46
- 0.266566 0 1 poisson 500 ------- 0 0.0 1.0 49 49
r 0.268964 0 1 poisson 500 ------- 0 0.0 1.0 47 47
+ 0.269982 0 1 poisson 500 ------- 0 0.0 1.0 50 50
- 0.270566 0 1 poisson 500 ------- 0 0.0 1.0 50 50
+ 0.271492 0 1 poisson 500 ------- 0 0.0 1.0 51 51
+ 0.274049 0 1 poisson 500 ------- 0 0.0 1.0 52 52
- 0.274566 0 1 poisson 500 ------- 0 0.0 1.0 51 51
+ 0.274603 0 1 poisson 500 ------- 0 0.0 1.0 53 53
r 0.276566 0 1 poisson 500 ------- 0 0.0 1.0 48 48
- 0.278566 0 1 poisson 500 ------- 0 0.0 1.0 52 52
+ 0.280245 0 1 poisson 500 ------- 0 0.0 1.0 54 54
r 0.280566 0 1 poisson 500 ------- 0 0.0 1.0 49 49
- 0.282566 0 1 poisson 500 ------- 0 0.0 1.0 53 53
+ 0.282726 0 1 poisson 500 ------- 0 0.0 1.0 55 55
r 0.284566 0 1 poisson 500 ------- 0 0.0 1.0 50 50
+ 0.286322 0 1 poisson 500 ------- 0 0.0 1.0 56 56
- 0.286566 0 1 poisson 500 ------- 0 0.0 1.0 54 54
r 0.288566 0 1 poisson 500 ------- 0 0.0 1.0 51 51
- 0.290566 0 1 poisson 500 ------- 0 0.0 1.0 55 55
r 0.292566 0 1 poisson 500 ------- 0 0.0 1.0 52 52
- 0.294566 0 1 poisson 500 ------- 0 0.0 1.0 56 56
r 0.296566 0 1 poisson 500 ------- 0 0.0 1.0 53 53
r 0.300566 0 1 poisson 500 ------- 0 0.0 1.0 54 54
+ 0.301444 0 1 poisson 500 ------- 0 0.0 1.0 57 57
- 0.301444 0 1 poisson 500 ------- 0 0.0 1.0 57 57
r 0.304566 0 1 poisson 500 ------- 0 0.0 1.0 55 55
+ 0.306146 0 1 poisson 500 ------- 0 0.0 1.0 58 58
- 0.306146 0 1 poisson 500 ------- 0 0.0 1.0 58 58
r 0.308566 0 1 poisson 500 ------- 0 0.0 1.0 56 56
+ 0.313224 0 1 poisson 500 ------- 0 0.0 1.0 59 59
- 0.313224 0 1 poisson 500 ------- 0 0.0 1.0 59 59
+ 0.314243 0 1 poisson 500 ------- 0 0.0 1.0 60 60
+ 0.314473 0 1 poisson 500 ------- 0 0.0 1.0 61 61
r 0.315444 0 1 poisson 500 ------- 0 0.0 1.0 57 57
+ 0.315559 0 1 poisson 500 ------- 0 0.0 1.0 62 62
- 0.317224 0 1 poisson 500 ------- 0 0.0 1.0 60 60
r 0.320146 0 1 poisson 500 ------- 0 0.0 1.0 58 58
- 0.321224 0 1 poisson 500 ------- 0 0.0 1.0 61 61
+ 0.322196 0 1 poisson 500 ------- 0 0.0 1.0 63 63
+ 0.323728 0 1 poisson 500 ------- 0 0.0 1.0 64 64
- 0.325224 0 1 poisson 500 ------- 0 0.0 1.0 62 62
r 0.327224 0 1 poisson 500 ------- 0 0.0 1.0 59 59
- 0.329224 0 1 poisson 500 ------- 0 0.0 1.0 63 63
+ 0.330978 0 1 poisson 500 ------- 0 0.0 1.0 65 65
+ 0.331081 0 1 poisson 500 ------- 0 0.0 1.0 66 66
r 0.331224 0 1 poisson 500 ------- 0 0.0 1.0 60 60
- 0.333224 0 1 poisson 500 ------- 0 0.0 1.0 64 64
r 0.335224 0 1 poisson 500 ------- 0 0.0 1.0 61 61
- 0.337224 0 1 poisson 500 ------- 0 0.0 1.0 65 65
r 0.339224 0 1 poisson 500 ------- 0 0.0 1.0 62 62
+ 0.341156 0 1 poisson 500 ------- 0 0.0 1.0 67 67
- 0.341224 0 1 poisson 500 ------- 0 0.0 1.0 66 66
r 0.343224 0 1 poisson 500 ------- 0 0.0 1.0 63 63
+ 0.344145 0 1 poisson 500 ------- 0 0.0 1.0 68 68
- 0.345224 0 1 poisson 500 ------- 0 0.0 1.0 67 67
r 0.347224 0 1 poisson 500 ------- 0 0.0 1.0 64 64
- 0.349224 0 1 poisson 500 ------- 0 0.0 1.0 68 68
r 0.351224 0 1 poisson 500 ------- 0 0.0 1.0 65 65
r 0.355224 0 1 poisson 500 ------- 0 0.0 1.0 66 66
+ 0.356747 0 1 poisson 500 ------- 0 0.0 1.0 69 69
- 0.356747 0 1 poisson 500 ------- 0 0.0 1.0 69 69
+ 0.357358 0 1 poisson 500 ------- 0 0.0 1.0 70 70
r 0.359224 0 1 poisson 500 ------- 0 0.0 1.0 67 67
+ 0.360008 0 1 poisson 500 ------- 0 0.0 1.0 71 71
- 0.360747 0 1 poisson 500 ------- 0 0.0 1.0 70 70
+ 0.361304 0 1 poisson 500 ------- 0 0.0 1.0 72 72
r 0.363224 0 1 poisson 500 ------- 0 0.0 1.0 68 68
- 0.364747 0 1 poisson 500 ------- 0 0.0 1.0 71 71
+ 0.364944 0 1 poisson 500 ------- 0 0.0 1.0 73 73
- 0.368747 0 1 poisson 500 ------- 0 0.0 1.0 72 72
r 0.370747 0 1 poisson 500 ------- 0 0.0 1.0 69 69
- 0.372747 0 1 poisson 500 ------- 0 0.0 1.0 73 73
r 0.374747 0 1 poisson 500 ------- 0 0.0 1.0 70 70
+ 0.375168 0 1 poisson 500 ------- 0 0.0 1.0 74 74
+ 0.376032 0 1 poisson 500 ------- 0 0.0 1.0 75 75
+ 0.376463 0 1 poisson 500 ------- 0 0.0 1.0 76 76
- 0.376747 0 1 poisson 500 ------- 0 0.0 1.0 74 74
+ 0.377799 0 1 poisson 500 ------- 0 0.0 1.0 77 77
+ 0.378363 0 1 poisson 500 ------- 0 0.0 1.0 78 78
r 0.378747 0 1 poisson 500 ------- 0 0.0 1.0 71 71
+ 0.380612 0 1 poisson 500 ------- 0 0.0 1.0 79 79
- 0.380747 0 1 poisson 500 ------- 0 0.0 1.0 75 75
+ 0.381904 0 1 poisson 500 ------- 0 0.0 1.0 80 80
r 0.382747 0 1 poisson 500 ------- 0 0.0 1.0 72 72
+ 0.382833 0 1 poisson 500 ------- 0 0.0 1.0 81 81
- 0.384747 0 1 poisson 500 ------- 0 0.0 1.0 76 76
r 0.386747 0 1 poisson 500 ------- 0 0.0 1.0 73 73
+ 0.387181 0 1 poisson 500 ------- 0 0.0 1.0 82 82
- 0.388747 0 1 poisson 500 ------- 0 0.0 1.0 77 77
+ 0.389634 0 1 poisson 500 ------- 0 0.0 1.0 83 83
+ 0.390493 0 1 poisson 500 ------- 0 0.0 1.0 84 84
r 0.390747 0 1 poisson 500 ------- 0 0.0 1.0 74 74
+ 0.391518 0 1 poisson 500 ------- 0 0.0 1.0 85 85
- 0.392747 0 1 poisson 500 ------- 0 0.0 1.0 78 78
+ 0.393245 0 1 poisson 500 ------- 0 0.0 1.0 86 86
r 0.394747 0 1 poisson 500 ------- 0 0.0 1.0 75 75
- 0.396747 0 1 poisson 500 ------- 0 0.0 1.0 79 79
r 0.398747 0 1 poisson 500 ------- 0 0.0 1.0 76 76
- 0.400747 0 1 poisson 500 ------- 0 0.0 1.0 80 80
+ 0.401234 0 1 poisson 500 ------- 0 0.0 1.0 87 87
r 0.402747 0 1 poisson 500 ------- 0 0.0 1.0 77 77
- 0.404747 0 1 poisson 500 ------- 0 0.0 1.0 81 81
+ 0.405025 0 1 poisson 500 ------- 0 0.0 1.0 88 88
r 0.406747 0 1 poisson 500 ------- 0 0.0 1.0 78 78
+ 0.407572 0 1 poisson 500 ------- 0 0.0 1.0 89 89
- 0.408747 0 1 poisson 500 ------- 0 0.0 1.0 82 82
r 0.410747 0 1 poisson 500 ------- 0 0.0 1.0 79 79
+ 0.411718 0 1 poisson 500 ------- 0 0.0 1.0 90 90
- 0.412747 0 1 poisson 500 ------- 0 0.0 1.0 83 83
r 0.414747 0 1 poisson 500 ------- 0 0.0 1.0 80 80
- 0.416747 0 1 poisson 500 ------- 0 0.0 1.0 84 84
r 0.418747 0 1 poisson 500 ------- 0 0.0 1.0 81 81
- 0.420747 0 1 poisson 500 ------- 0 0.0 1.0 85 85
r 0.422747 0 1 poisson 500 ------- 0 0.0 1.0 82 82
- 0.424747 0 1 poisson 500 ------- 0 0.0 1.0 86 86
r 0.426747 0 1 poisson 500 ------- 0 0.0 1.0 83 83
- 0.428747 0 1 poisson 500 ------- 0 0.0 1.0 87 87
r 0.430747 0 1 poisson 500 ------- 0 0.0 1.0 84 84
- 0.432747 0 1 poisson 500 ------- 0 0.0 1.0 88 88
r 0.434747 0 1 poisson 500 ------- 0 0.0 1.0 85 85
- 0.436747 0 1 poisson 500 ------- 0 0.0 1.0 89 89
r 0.438747 0 1 poisson 500 ------- 0 0.0 1.0 86 86
- 0.440747 0 1 poisson 500 ------- 0 0.0 1.0 90 90
r 0.442747 0 1 poisson 500 ------- 0 0.0 1.0 87 87
r 0.446747 0 1 poisson 500 ------- 0 0.0 1.0 88 88
+ 0.448153 0 1 poisson 500 ------- 0 0.0 1.0 91 91
- 0.448153 0 1 poisson 500 ------- 0 0.0 1.0 91 91
r 0.450747 0 1 poisson 500 ------- 0 0.0 1.0 89 89
r 0.454747 0 1 poisson 500 ------- 0 0.0 1.0 90 90
+ 0.458611 0 1 poisson 500 ------- 0 0.0 1.0 92 92
- 0.458611 0 1 poisson 500 ------- 0 0.0 1.0 92 92
r 0.462153 0 1 poisson 500 ------- 0 0.0 1.0 91 91
+ 0.463251 0 1 poisson 500 ------- 0 0.0 1.0 93 93
- 0.463251 0 1 poisson 500 ------- 0 0.0 1.0 93 93
+ 0.464778 0 1 poisson 500 ------- 0 0.0 1.0 94 94
+ 0.465167 0 1 poisson 500 ------- 0 0.0 1.0 95 95
- 0.467251 0 1 poisson 500 ------- 0 0.0 1.0 94 94
- 0.471251 0 1 poisson 500 ------- 0 0.0 1.0 95 95
r 0.472611 0 1 poisson 500 ------- 0 0.0 1.0 92 92
r 0.477251 0 1 poisson 500 ------- 0 0.0 1.0 93 93
+ 0.479556 0 1 poisson 500 ------- 0 0.0 1.0 96 96
- 0.479556 0 1 poisson 500 ------- 0 0.0 1.0 96 96
r 0.481251 0 1 poisson 500 ------- 0 0.0 1.0 94 94
+ 0.483797 0 1 poisson 500 ------- 0 0.0 1.0 97 97
- 0.483797 0 1 poisson 500 ------- 0 0.0 1.0 97 97
r 0.485251 0 1 poisson 500 ------- 0 0.0 1.0 95 95
+ 0.488797 0 1 poisson 500 ------- 0 0.0 1.0 98 98
- 0.488797 0 1 poisson 500 ------- 0 0.0 1.0 98 98
r 0.493556 0 1 poisson 500 ------- 0 0.0 1.0 96 96
r 0.497797 0 1 poisson 500 ------- 0 0.0 1.0 97 97
r 0.502797 0 1 poisson 500 ------- 0 0.0 1.0 98 98
+ 0.512792 0 1 poisson 500 ------- 0 0.0 1.0 99 99
- 0.512792 0 1 poisson 500 ------- 0 0.0 1.0 99 99
+ 0.517566 0 1 poisson 500 ------- 0 0.0 1.0 100 100
- 0.517566 0 1 poisson 500 ------- 0 0.0 1.0 100 100
+ 0.518099 0 1 poisson 500 ------- 0 0.0 1.0 101 101
+ 0.518637 0 1 poisson 500 ------- 0 0.0 1.0 102 102
+ 0.519546 0 1 poisson 500 ------- 0 0.0 1.0 103 103
- 0.521566 0 1 poisson 500 ------- 0 0.0 1.0 101 101
- 0.525566 0 1 poisson 500 ------- 0 0.0 1.0 102 102
r 0.526792 0 1 poisson 500 ------- 0 0.0 1.0 99 99
+ 0.526977 0 1 poisson 500 ------- 0 0.0 1.0 104 104
- 0.529566 0 1 poisson 500 ------- 0 0.0 1.0 103 103
r 0.531566 0 1 poisson 500 ------- 0 0.0 1.0 100 100
- 0.533566 0 1 poisson 500 ------- 0 0.0 1.0 104 104
r 0.535566 0 1 poisson 500 ------- 0 0.0 1.0 101 101
r 0.539566 0 1 poisson 500 ------- 0 0.0 1.0 102 102
+ 0.541477 0 1 poisson 500 ------- 0 0.0 1.0 105 105
- 0.541477 0 1 poisson 500 ------- 0 0.0 1.0 105 105
+ 0.542659 0 1 poisson 500 ------- 0 0.0 1.0 106 106
r 0.543566 0 1 poisson 500 ------- 0 0.0 1.0 103 103
+ 0.544704 0 1 poisson 500 ------- 0 0.0 1.0 107 107
- 0.545477 0 1 poisson 500 ------- 0 0.0 1.0 106 106
+ 0.545698 0 1 poisson 500 ------- 0 0.0 1.0 108 108
r 0.547566 0 1 poisson 500 ------- 0 0.0 1.0 104 104
+ 0.548445 0 1 poisson 500 ------- 0 0.0 1.0 109 109
- 0.549477 0 1 poisson 500 ------- 0 0.0 1.0 107 107
+ 0.551796 0 1 poisson 500 ------- 0 0.0 1.0 110 110
- 0.553477 0 1 poisson 500 ------- 0 0.0 1.0 108 108
r 0.555477 0 1 poisson 500 ------- 0 0.0 1.0 105 105
- 0.557477 0 1 poisson 500 ------- 0 0.0 1.0 109 109
+ 0.558415 0 1 poisson 500 ------- 0 0.0 1.0 111 111
r 0.559477 0 1 poisson 500 ------- 0 0.0 1.0 106 106
- 0.561477 0 1 poisson 500 ------- 0 0.0 1.0 110 110
r 0.563477 0 1 poisson 500 ------- 0 0.0 1.0 107 107
- 0.565477 0 1 poisson 500 ------- 0 0.0 1.0 111 111
r 0.567477 0 1 poisson 500 ------- 0 0.0 1.0 108 108
r 0.571477 0 1 poisson 500 ------- 0 0.0 1.0 109 109
r 0.575477 0 1 poisson 500 ------- 0 0.0 1.0 110 110
+ 0.575827 0 1 poisson 500 ------- 0 0.0 1.0 112 112
- 0.575827 0 1 poisson 500 ------- 0 0.0 1.0 112 112
+ 0.579285 0 1 poisson 500 ------- 0 0.0 1.0 113 113
r 0.579477 0 1 poisson 500 ------- 0 0.0 1.0 111 111
- 0.579827 0 1 poisson 500 ------- 0 0.0 1.0 113 113
+ 0.582768 0 1 poisson 500 ------- 0 0.0 1.0 114 114
- 0.583827 0 1 poisson 500 ------- 0 0.0 1.0 114 114
+ 0.587421 0 1 poisson 500 ------- 0 0.0 1.0 115 115
- 0.587827 0 1 poisson 500 ------- 0 0.0 1.0 115 115
r 0.589827 0 1 poisson 500 ------- 0 0.0 1.0 112 112
r 0.593827 0 1 poisson 500 ------- 0 0.0 1.0 113 113
+ 0.596377 0 1 poisson 500 ------- 0 0.0 1.0 116 116
- 0.596377 0 1 poisson 500 ------- 0 0.0 1.0 116 116
+ 0.596823 0 1 poisson 500 ------- 0 0.0 1.0 117 117
r 0.597827 0 1 poisson 500 ------- 0 0.0 1.0 114 114
- 0.600377 0 1 poisson 500 ------- 0 0.0 1.0 117 117
r 0.601827 0 1 poisson 500 ------- 0 0.0 1.0 115 115
+ 0.603312 0 1 poisson 500 ------- 0 0.0 1.0 118 118
- 0.604377 0 1 poisson 500 ------- 0 0.0 1.0 118 118
+ 0.606862 0 1 poisson 500 ------- 0 0.0 1.0 119 119
- 0.608377 0 1 poisson 500 ------- 0 0.0 1.0 119 119
r 0.610377 0 1 poisson 500 ------- 0 0.0 1.0 116 116
+ 0.610485 0 1 poisson 500 ------- 0 0.0 1.0 120 120
- 0.612377 0 1 poisson 500 ------- 0 0.0 1.0 120 120
+ 0.614265 0 1 poisson 500 ------- 0 0.0 1.0 121 121
r 0.614377 0 1 poisson 500 ------- 0 0.0 1.0 117 117
+ 0.615558 0 1 poisson 500 ------- 0 0.0 1.0 122 122
- 0.616377 0 1 poisson 500 ------- 0 0.0 1.0 121 121
r 0.618377 0 1 poisson 500 ------- 0 0.0 1.0 118 118
+ 0.618606 0 1 poisson 500 ------- 0 0.0 1.0 123 123
+ 0.619065 0 1 poisson 500 ------- 0 0.0 1.0 124 124
- 0.620377 0 1 poisson 500 ------- 0 0.0 1.0 122 122
+ 0.621058 0 1 poisson 500 ------- 0 0.0 1.0 125 125
+ 0.621739 0 1 poisson 500 ------- 0 0.0 1.0 126 126
r 0.622377 0 1 poisson 500 ------- 0 0.0 1.0 119 119
- 0.624377 0 1 poisson 500 ------- 0 0.0 1.0 123 123
r 0.626377 0 1 poisson 500 ------- 0 0.0 1.0 120 120
- 0.628377 0 1 poisson 500 ------- 0 0.0 1.0 124 124
+ 0.629494 0 1 poisson 500 ------- 0 0.0 1.0 127 127
r 0.630377 0 1 poisson 500 ------- 0 0.0 1.0 121 121
- 0.632377 0 1 poisson 500 ------- 0 0.0 1.0 125 125
r 0.634377 0 1 poisson 500 ------- 0 0.0 1.0 122 122
+ 0.635582 0 1 poisson 500 ------- 0 0.0 1.0 128 128
- 0.636377 0 1 poisson 500 ------- 0 0.0 1.0 126 126
r 0.638377 0 1 poisson 500 ------- 0 0.0 1.0 123 123
- 0.640377 0 1 poisson 500 ------- 0 0.0 1.0 127 127
r 0.642377 0 1 poisson 500 ------- 0 0.0 1.0 124 124
- 0.644377 0 1 poisson 500 ------- 0 0.0 1.0 128 128
r 0.646377 0 1 poisson 500 ------- 0 0.0 1.0 125 125
+ 0.647124 0 1 poisson 500 ------- 0 0.0 1.0 129 129
- 0.648377 0 1 poisson 500 ------- 0 0.0 1.0 129 129
r 0.650377 0 1 poisson 500 ------- 0 0.0 1.0 126 126
r 0.654377 0 1 poisson 500 ------- 0 0.0 1.0 127 127
+ 0.654423 0 1 poisson 500 ------- 0 0.0 1.0 130 130
- 0.654423 0 1 poisson 500 ------- 0 0.0 1.0 130 130
+ 0.655002 0 1 poisson 500 ------- 0 0.0 1.0 131 131
r 0.658377 0 1 poisson 500 ------- 0 0.0 1.0 128 128
- 0.658423 0 1 poisson 500 ------- 0 0.0 1.0 131 131
r 0.662377 0 1 poisson 500 ------- 0 0.0 1.0 129 129
r 0.668423 0 1 poisson 500 ------- 0 0.0 1.0 130 130
+ 0.668608 0 1 poisson 500 ------- 0 0.0 1.0 132 132
- 0.668608 0 1 poisson 500 ------- 0 0.0 1.0 132 132
+ 0.670913 0 1 poisson 500 ------- 0 0.0 1.0 133 133
+ 0.672377 0 1 poisson 500 ------- 0 0.0 1.0 134 134
r 0.672423 0 1 poisson 500 ------- 0 0.0 1.0 131 131
- 0.672608 0 1 poisson 500 ------- 0 0.0 1.0 133 133
- 0.676608 0 1 poisson 500 ------- 0 0.0 1.0 134 134
+ 0.678624 0 1 poisson 500 ------- 0 0.0 1.0 135 135
+ 0.679407 0 1 poisson 500 ------- 0 0.0 1.0 136 136
- 0.680608 0 1 poisson 500 ------- 0 0.0 1.0 135 135
r 0.682608 0 1 poisson 500 ------- 0 0.0 1.0 132 132
- 0.684608 0 1 poisson 500 ------- 0 0.0 1.0 136 136
r 0.686608 0 1 poisson 500 ------- 0 0.0 1.0 133 133
r 0.690608 0 1 poisson 500 ------- 0 0.0 1.0 134 134
+ 0.691345 0 1 poisson 500 ------- 0 0.0 1.0 137 137
- 0.691345 0 1 poisson 500 ------- 0 0.0 1.0 137 137
r 0.694608 0 1 poisson 500 ------- 0 0.0 1.0 135 135
+ 0.695888 0 1 poisson 500 ------- 0 0.0 1.0 138 138
- 0.695888 0 1 poisson 500 ------- 0 0.0 1.0 138 138
+ 0.696859 0 1 poisson 500 ------- 0 0.0 1.0 139 139
r 0.698608 0 1 poisson 500 ------- 0 0.0 1.0 136 136
+ 0.698758 0 1 poisson 500 ------- 0 0.0 1.0 140 140
- 0.699888 0 1 poisson 500 ------- 0 0.0 1.0 139 139
+ 0.702278 0 1 poisson 500 ------- 0 0.0 1.0 141 141
- 0.703888 0 1 poisson 500 ------- 0 0.0 1.0 140 140
r 0.705345 0 1 poisson 500 ------- 0 0.0 1.0 137 137
- 0.707888 0 1 poisson 500 ------- 0 0.0 1.0 141 141
+ 0.708485 0 1 poisson 500 ------- 0 0.0 1.0 142 142
r 0.709888 0 1 poisson 500 ------- 0 0.0 1.0 138 138
- 0.711888 0 1 poisson 500 ------- 0 0.0 1.0 142 142
+ 0.711924 0 1 poisson 500 ------- 0 0.0 1.0 143 143
+ 0.712185 0 1 poisson 500 ------- 0 0.0 1.0 144 144
r 0.713888 0 1 poisson 500 ------- 0 0.0 1.0 139 139
+ 0.715455 0 1 poisson 500 ------- 0 0.0 1.0 145 145
- 0.715888 0 1 poisson 500 ------- 0 0.0 1.0 143 143
+ 0.715892 0 1 poisson 500 ------- 0 0.0 1.0 146 146
+ 0.716074 0 1 poisson 500 ------- 0 0.0 1.0 147 147
+ 0.716491 0 1 poisson 500 ------- 0 0.0 1.0 148 148
r 0.717888 0 1 poisson 500 ------- 0 0.0 1.0 140 140
- 0.719888 0 1 poisson 500 ------- 0 0.0 1.0 144 144
r 0.721888 0 1 poisson 500 ------- 0 0.0 1.0 141 141
- 0.723888 0 1 poisson 500 ------- 0 0.0 1.0 145 145
+ 0.724428 0 1 poisson 500 ------- 0 0.0 1.0 149 149
+ 0.724666 0 1 poisson 500 ------- 0 0.0 1.0 150 150
r 0.725888 0 1 poisson 500 ------- 0 0.0 1.0 142 142
+ 0.727259 0 1 poisson 500 ------- 0 0.0 1.0 151 151
- 0.727888 0 1 poisson 500 ------- 0 0.0 1.0 146 146
r 0.729888 0 1 poisson 500 ------- 0 0.0 1.0 143 143
+ 0.72989 0 1 poisson 500 ------- 0 0.0 1.0 152 152
- 0.731888 0 1 poisson 500 ------- 0 0.0 1.0 147 147
r 0.733888 0 1 poisson 500 ------- 0 0.0 1.0 144 144
- 0.735888 0 1 poisson 500 ------- 0 0.0 1.0 148 148
r 0.737888 0 1 poisson 500 ------- 0 0.0 1.0 145 145
- 0.739888 0 1 poisson 500 ------- 0 0.0 1.0 149 149
+ 0.741304 0 1 poisson 500 ------- 0 0.0 1.0 153 153
+ 0.741424 0 1 poisson 500 ------- 0 0.0 1.0 154 154
r 0.741888 0 1 poisson 500 ------- 0 0.0 1.0 146 146
- 0.743888 0 1 poisson 500 ------- 0 0.0 1.0 150 150
+ 0.744193 0 1 poisson 500 ------- 0 0.0 1.0 155 155
+ 0.744727 0 1 poisson 500 ------- 0 0.0 1.0 156 156
r 0.745888 0 1 poisson 500 ------- 0 0.0 1.0 147 147
+ 0.746053 0 1 poisson 500 ------- 0 0.0 1.0 157 157
- 0.747888 0 1 poisson 500 ------- 0 0.0 1.0 151 151
r 0.749888 0 1 poisson 500 ------- 0 0.0 1.0 148 148
+ 0.751679 0 1 poisson 500 ------- 0 0.0 1.0 158 158
- 0.751888 0 1 poisson 500 ------- 0 0.0 1.0 152 152
r 0.753888 0 1 poisson 500 ------- 0 0.0 1.0 149 149
+ 0.754774 0 1 poisson 500 ------- 0 0.0 1.0 159 159
- 0.755888 0 1 poisson 500 ------- 0 0.0 1.0 153 153
+ 0.755987 0 1 poisson 500 ------- 0 0.0 1.0 160 160
r 0.757888 0 1 poisson 500 ------- 0 0.0 1.0 150 150
- 0.759888 0 1 poisson 500 ------- 0 0.0 1.0 154 154
r 0.761888 0 1 poisson 500 ------- 0 0.0 1.0 151 151
+ 0.762641 0 1 poisson 500 ------- 0 0.0 1.0 161 161
- 0.763888 0 1 poisson 500 ------- 0 0.0 1.0 155 155
+ 0.764294 0 1 poisson 500 ------- 0 0.0 1.0 162 162
r 0.765888 0 1 poisson 500 ------- 0 0.0 1.0 152 152
+ 0.766061 0 1 poisson 500 ------- 0 0.0 1.0 163 163
- 0.767888 0 1 poisson 500 ------- 0 0.0 1.0 156 156
r 0.769888 0 1 poisson 500 ------- 0 0.0 1.0 153 153
- 0.771888 0 1 poisson 500 ------- 0 0.0 1.0 157 157
+ 0.773729 0 1 poisson 500 ------- 0 0.0 1.0 164 164
r 0.773888 0 1 poisson 500 ------- 0 0.0 1.0 154 154
- 0.775888 0 1 poisson 500 ------- 0 0.0 1.0 158 158
r 0.777888 0 1 poisson 500 ------- 0 0.0 1.0 155 155
+ 0.779324 0 1 poisson 500 ------- 0 0.0 1.0 165 165
- 0.779888 0 1 poisson 500 ------- 0 0.0 1.0 159 159
r 0.781888 0 1 poisson 500 ------- 0 0.0 1.0 156 156
+ 0.783413 0 1 poisson 500 ------- 0 0.0 1.0 166 166
- 0.783888 0 1 poisson 500 ------- 0 0.0 1.0 160 160
+ 0.785483 0 1 poisson 500 ------- 0 0.0 1.0 167 167
r 0.785888 0 1 poisson 500 ------- 0 0.0 1.0 157 157
+ 0.787261 0 1 poisson 500 ------- 0 0.0 1.0 168 168
- 0.787888 0 1 poisson 500 ------- 0 0.0 1.0 161 161
+ 0.787923 0 1 poisson 500 ------- 0 0.0 1.0 169 169
r 0.789888 0 1 poisson 500 ------- 0 0.0 1.0 158 158
- 0.791888 0 1 poisson 500 ------- 0 0.0 1.0 162 162
+ 0.793277 0 1 poisson 500 ------- 0 0.0 1.0 170 170
r 0.793888 0 1 poisson 500 ------- 0 0.0 1.0 159 159
- 0.795888 0 1 poisson 500 ------- 0 0.0 1.0 163 163
r 0.797888 0 1 poisson 500 ------- 0 0.0 1.0 160 160
- 0.799888 0 1 poisson 500 ------- 0 0.0 1.0 164 164
+ 0.800826 0 1 poisson 500 ------- 0 0.0 1.0 171 171
r 0.801888 0 1 poisson 500 ------- 0 0.0 1.0 161 161
- 0.803888 0 1 poisson 500 ------- 0 0.0 1.0 165 165
r 0.805888 0 1 poisson 500 ------- 0 0.0 1.0 162 162
+ 0.807755 0 1 poisson 500 ------- 0 0.0 1.0 172 172
- 0.807888 0 1 poisson 500 ------- 0 0.0 1.0 166 166
r 0.809888 0 1 poisson 500 ------- 0 0.0 1.0 163 163
- 0.811888 0 1 poisson 500 ------- 0 0.0 1.0 167 167
r 0.813888 0 1 poisson 500 ------- 0 0.0 1.0 164 164
- 0.815888 0 1 poisson 500 ------- 0 0.0 1.0 168 168
r 0.817888 0 1 poisson 500 ------- 0 0.0 1.0 165 165
- 0.819888 0 1 poisson 500 ------- 0 0.0 1.0 169 169
+ 0.821146 0 1 poisson 500 ------- 0 0.0 1.0 173 173
r 0.821888 0 1 poisson 500 ------- 0 0.0 1.0 166 166
- 0.823888 0 1 poisson 500 ------- 0 0.0 1.0 170 170
r 0.825888 0 1 poisson 500 ------- 0 0.0 1.0 167 167
- 0.827888 0 1 poisson 500 ------- 0 0.0 1.0 171 171
r 0.829888 0 1 poisson 500 ------- 0 0.0 1.0 168 168
- 0.831888 0 1 poisson 500 ------- 0 0.0 1.0 172 172
+ 0.83192 0 1 poisson 500 ------- 0 0.0 1.0 174 174
r 0.833888 0 1 poisson 500 ------- 0 0.0 1.0 169 169
- 0.835888 0 1 poisson 500 ------- 0 0.0 1.0 173 173
r 0.837888 0 1 poisson 500 ------- 0 0.0 1.0 170 170
- 0.839888 0 1 poisson 500 ------- 0 0.0 1.0 174 174
+ 0.840868 0 1 poisson 500 ------- 0 0.0 1.0 175 175
r 0.841888 0 1 poisson 500 ------- 0 0.0 1.0 171 171
- 0.843888 0 1 poisson 500 ------- 0 0.0 1.0 175 175
r 0.845888 0 1 poisson 500 ------- 0 0.0 1.0 172 172
r 0.849888 0 1 poisson 500 ------- 0 0.0 1.0 173 173
+ 0.853164 0 1 poisson 500 ------- 0 0.0 1.0 176 176
- 0.853164 0 1 poisson 500 ------- 0 0.0 1.0 176 176
r 0.853888 0 1 poisson 500 ------- 0 0.0 1.0 174 174
+ 0.857476 0 1 poisson 500 ------- 0 0.0 1.0 177 177
- 0.857476 0 1 poisson 500 ------- 0 0.0 1.0 177 177
r 0.857888 0 1 poisson 500 ------- 0 0.0 1.0 175 175
+ 0.863961 0 1 poisson 500 ------- 0 0.0 1.0 178 178
- 0.863961 0 1 poisson 500 ------- 0 0.0 1.0 178 178
r 0.867164 0 1 poisson 500 ------- 0 0.0 1.0 176 176
r 0.871476 0 1 poisson 500 ------- 0 0.0 1.0 177 177
+ 0.876147 0 1 poisson 500 ------- 0 0.0 1.0 179 179
- 0.876147 0 1 poisson 500 ------- 0 0.0 1.0 179 179
+ 0.876345 0 1 poisson 500 ------- 0 0.0 1.0 180 180
+ 0.87717 0 1 poisson 500 ------- 0 0.0 1.0 181 181
r 0.877961 0 1 poisson 500 ------- 0 0.0 1.0 178 178
+ 0.878622 0 1 poisson 500 ------- 0 0.0 1.0 182 182
- 0.880147 0 1 poisson 500 ------- 0 0.0 1.0 180 180
+ 0.882172 0 1 poisson 500 ------- 0 0.0 1.0 183 183
+ 0.882956 0 1 poisson 500 ------- 0 0.0 1.0 184 184
- 0.884147 0 1 poisson 500 ------- 0 0.0 1.0 181 181
+ 0.88689 0 1 poisson 500 ------- 0 0.0 1.0 185 185
- 0.888147 0 1 poisson 500 ------- 0 0.0 1.0 182 182
+ 0.889458 0 1 poisson 500 ------- 0 0.0 1.0 186 186
r 0.890147 0 1 poisson 500 ------- 0 0.0 1.0 179 179
- 0.892147 0 1 poisson 500 ------- 0 0.0 1.0 183 183
r 0.894147 0 1 poisson 500 ------- 0 0.0 1.0 180 180
- 0.896147 0 1 poisson 500 ------- 0 0.0 1.0 184 184
+ 0.898053 0 1 poisson 500 ------- 0 0.0 1.0 187 187
r 0.898147 0 1 poisson 500 ------- 0 0.0 1.0 181 181
- 0.900147 0 1 poisson 500 ------- 0 0.0 1.0 185 185
+ 0.900345 0 1 poisson 500 ------- 0 0.0 1.0 188 188
r 0.902147 0 1 poisson 500 ------- 0 0.0 1.0 182 182
+ 0.904028 0 1 poisson 500 ------- 0 0.0 1.0 189 189
- 0.904147 0 1 poisson 500 ------- 0 0.0 1.0 186 186
+ 0.904828 0 1 poisson 500 ------- 0 0.0 1.0 190 190
+ 0.905737 0 1 poisson 500 ------- 0 0.0 1.0 191 191
r 0.906147 0 1 poisson 500 ------- 0 0.0 1.0 183 183
+ 0.906385 0 1 poisson 500 ------- 0 0.0 1.0 192 192
- 0.908147 0 1 poisson 500 ------- 0 0.0 1.0 187 187
r 0.910147 0 1 poisson 500 ------- 0 0.0 1.0 184 184
- 0.912147 0 1 poisson 500 ------- 0 0.0 1.0 188 188
r 0.914147 0 1 poisson 500 ------- 0 0.0 1.0 185 185
- 0.916147 0 1 poisson 500 ------- 0 0.0 1.0 189 189
r 0.918147 0 1 poisson 500 ------- 0 0.0 1.0 186 186
- 0.920147 0 1 poisson 500 ------- 0 0.0 1.0 190 190
r 0.922147 0 1 poisson 500 ------- 0 0.0 1.0 187 187
- 0.924147 0 1 poisson 500 ------- 0 0.0 1.0 191 191
r 0.926147 0 1 poisson 500 ------- 0 0.0 1.0 188 188
- 0.928147 0 1 poisson 500 ------- 0 0.0 1.0 192 192
r 0.930147 0 1 poisson 500 ------- 0 0.0 1.0 189 189
+ 0.930161 0 1 poisson 500 ------- 0 0.0 1.0 193 193
+ 0.931135 0 1 poisson 500 ------- 0 0.0 1.0 194 194
- 0.932147 0 1 poisson 500 ------- 0 0.0 1.0 193 193